<PP_INFO>
Generated using Fritz-Haber code                                                
Author: unknown    Generation date: as well                                     
Info: automatically converted from FHI format                                   
    1        The Pseudo was generated with a Scalar-Relativistic Calculation
nl pn  l   occ               Rcut            Rcut US             E pseu
2s  0  0  2.00      0.00000000000      0.00000000000      0.00000000000
2p  0  1  1.00      0.00000000000      0.00000000000      0.00000000000
3d  0  2  0.00      0.00000000000      0.00000000000      0.00000000000
4f  0  3  0.00      0.00000000000      0.00000000000      0.00000000000

5.00 1 2 3 0.75 : z nc nv
    1  0   2.00      : n  l   f 
    2  0   2.00 
    2  1   1.00 
3 "t"                  : lmax  s_pp_def
0 0.0 0 "t"
1 0.0 0 "t"
2 0.0 0 "t"
3 0.0 0.01 "t"

[kioup@Macbook] [23:04:52] [~/work/AlBN/pseudo/B] $ ~/code/espresso-4.3.1/upftools/fhi2upf.x 
Input file > b.cpi
Pseudopotential with NLCC successfully read
Atom name > B
l local (max: 3) > 3
DFT > PZ
Wavefunction # 1: label, occupancy > 2s, 2.00
Wavefunction # 2: label, occupancy > 2p, 1.00
Wavefunction # 3: label, occupancy > 3d, 0.00
Wavefunction # 4: label, occupancy > 4f, 0.00
Pseudopotential successfully converted
Output PP file in UPF format :  b.cpi.UPF

</PP_INFO>


<PP_HEADER>
   0                   Version Number
  B                    Element
   NC                  Norm - Conserving pseudopotential
    T                  Nonlinear Core Correction
SLA  PZ   NOGX NOGC    PZ   Exchange-Correlation functional
    3.00000000000      Z valence
    0.00000000000      Total energy
    0.00000    0.00000 Suggested cutoff for wfc and rho
    2                  Max angular momentum component
  453                  Number of points in mesh
    4    3             Number of Wavefunctions, Number of Projectors
 Wavefunctions         nl  l   occ
                       2s  0  2.00
                       2p  1  1.00
                       3d  2  0.00
                       4f  3  0.00
</PP_HEADER>


<PP_MESH>
  <PP_R>
  1.25000000000E-03  1.28087500000E-03  1.31251261250E-03  1.34493167403E-03
  1.37815148638E-03  1.41219182809E-03  1.44707296624E-03  1.48281566851E-03
  1.51944121552E-03  1.55697141355E-03  1.59542860746E-03  1.63483569407E-03
  1.67521613571E-03  1.71659397426E-03  1.75899384543E-03  1.80244099341E-03
  1.84696128594E-03  1.89258122971E-03  1.93932798608E-03  1.98722938734E-03
  2.03631395320E-03  2.08661090785E-03  2.13815019727E-03  2.19096250714E-03
  2.24507928107E-03  2.30053273931E-03  2.35735589797E-03  2.41558258865E-03
  2.47524747859E-03  2.53638609132E-03  2.59903482777E-03  2.66323098802E-03
  2.72901279342E-03  2.79641940942E-03  2.86549096883E-03  2.93626859576E-03
  3.00879443008E-03  3.08311165250E-03  3.15926451032E-03  3.23729834372E-03
  3.31725961281E-03  3.39919592525E-03  3.48315606460E-03  3.56919001940E-03
  3.65734901288E-03  3.74768553349E-03  3.84025336617E-03  3.93510762432E-03
  4.03230478264E-03  4.13190271077E-03  4.23396070772E-03  4.33853953720E-03
  4.44570146377E-03  4.55551028993E-03  4.66803139409E-03  4.78333176952E-03
  4.90148006423E-03  5.02254662182E-03  5.14660352338E-03  5.27372463040E-03
  5.40398562877E-03  5.53746407381E-03  5.67423943643E-03  5.81439315051E-03
  5.95800866133E-03  6.10517147526E-03  6.25596921070E-03  6.41049165020E-03
  6.56883079396E-03  6.73108091457E-03  6.89733861316E-03  7.06770287691E-03
  7.24227513797E-03  7.42115933388E-03  7.60446196942E-03  7.79229218007E-03
  7.98476179692E-03  8.18198541330E-03  8.38408045301E-03  8.59116724020E-03
  8.80336907103E-03  9.02081228709E-03  9.24362635058E-03  9.47194392144E-03
  9.70590093630E-03  9.94563668942E-03  1.01912939157E-02  1.04430188754E-02
  1.07009614416E-02  1.09652751892E-02  1.12361174864E-02  1.15136495883E-02
  1.17980367331E-02  1.20894482404E-02  1.23880576120E-02  1.26940426350E-02
  1.30075854881E-02  1.33288728496E-02  1.36580960090E-02  1.39954509804E-02
  1.43411386196E-02  1.46953647435E-02  1.50583402527E-02  1.54302812570E-02
  1.58114092040E-02  1.62019510113E-02  1.66021392013E-02  1.70122120396E-02
  1.74324136770E-02  1.78629942948E-02  1.83042102539E-02  1.87563242471E-02
  1.92196054560E-02  1.96943297108E-02  2.01807796547E-02  2.06792449121E-02
  2.11900222615E-02  2.17134158113E-02  2.22497371819E-02  2.27993056903E-02
  2.33624485408E-02  2.39395010198E-02  2.45308066949E-02  2.51367176203E-02
  2.57575945455E-02  2.63938071308E-02  2.70457341669E-02  2.77137638009E-02
  2.83982937667E-02  2.90997316228E-02  2.98184949939E-02  3.05550118202E-02
  3.13097206122E-02  3.20830707113E-02  3.28755225579E-02  3.36875479650E-02
  3.45196303998E-02  3.53722652707E-02  3.62459602228E-02  3.71412354403E-02
  3.80586239557E-02  3.89986719674E-02  3.99619391650E-02  4.09489990624E-02
  4.19604393392E-02  4.29968621909E-02  4.40588846870E-02  4.51471391388E-02
  4.62622734755E-02  4.74049516304E-02  4.85758539357E-02  4.97756775279E-02
  5.10051367628E-02  5.22649636408E-02  5.35559082428E-02  5.48787391764E-02
  5.62342440340E-02  5.76232298617E-02  5.90465236392E-02  6.05049727731E-02
  6.19994456006E-02  6.35308319070E-02  6.51000434551E-02  6.67080145284E-02
  6.83557024873E-02  7.00440883387E-02  7.17741773207E-02  7.35469995005E-02
  7.53636103881E-02  7.72250915647E-02  7.91325513264E-02  8.10871253441E-02
  8.30899773401E-02  8.51422997804E-02  8.72453145850E-02  8.94002738553E-02
  9.16084606195E-02  9.38711895968E-02  9.61898079798E-02  9.85656962369E-02
  1.01000268934E-01  1.03494975577E-01  1.06051301473E-01  1.08670768620E-01
  1.11354936605E-01  1.14105403539E-01  1.16923807006E-01  1.19811825039E-01
  1.22771177118E-01  1.25803625193E-01  1.28910974735E-01  1.32095075811E-01
  1.35357824183E-01  1.38701162441E-01  1.42127081153E-01  1.45637620057E-01
  1.49234869273E-01  1.52920970544E-01  1.56698118516E-01  1.60568562044E-01
  1.64534605526E-01  1.68598610283E-01  1.72762995957E-01  1.77030241957E-01
  1.81402888933E-01  1.85883540290E-01  1.90474863735E-01  1.95179592869E-01
  2.00000528813E-01  2.04940541875E-01  2.10002573259E-01  2.15189636818E-01
  2.20504820848E-01  2.25951289923E-01  2.31532286784E-01  2.37251134267E-01
  2.43111237284E-01  2.49116084845E-01  2.55269252140E-01  2.61574402668E-01
  2.68035290414E-01  2.74655762087E-01  2.81439759411E-01  2.88391321468E-01
  2.95514587109E-01  3.02813797410E-01  3.10293298206E-01  3.17957542672E-01
  3.25811093976E-01  3.33858627997E-01  3.42104936109E-01  3.50554928031E-01
  3.59213634753E-01  3.68086211531E-01  3.77177940956E-01  3.86494236098E-01
  3.96040643730E-01  4.05822847630E-01  4.15846671966E-01  4.26118084764E-01
  4.36643201457E-01  4.47428288533E-01  4.58479767260E-01  4.69804217511E-01
  4.81408381684E-01  4.93299168712E-01  5.05483658179E-01  5.17969104536E-01
  5.30762941418E-01  5.43872786071E-01  5.57306443887E-01  5.71071913051E-01
  5.85177389303E-01  5.99631270819E-01  6.14442163208E-01  6.29618884639E-01
  6.45170471090E-01  6.61106181726E-01  6.77435504415E-01  6.94168161374E-01
  7.11314114960E-01  7.28883573599E-01  7.46886997867E-01  7.65335106714E-01
  7.84238883850E-01  8.03609584281E-01  8.23458741013E-01  8.43798171916E-01
  8.64639986762E-01  8.85996594435E-01  9.07880710318E-01  9.30305363863E-01
  9.53283906350E-01  9.76830018837E-01  1.00095772030E+00  1.02568137599E+00
  1.05101570598E+00  1.07697579392E+00  1.10357709603E+00  1.13083545030E+00
  1.15876708592E+00  1.18738863294E+00  1.21671713218E+00  1.24677004534E+00
  1.27756526546E+00  1.30912112752E+00  1.34145641937E+00  1.37459039293E+00
  1.40854277563E+00  1.44333378219E+00  1.47898412661E+00  1.51551503454E+00
  1.55294825589E+00  1.59130607781E+00  1.63061133794E+00  1.67088743798E+00
  1.71215835770E+00  1.75444866914E+00  1.79778355126E+00  1.84218880498E+00
  1.88769086846E+00  1.93431683291E+00  1.98209445869E+00  2.03105219182E+00
  2.08121918095E+00  2.13262529472E+00  2.18530113950E+00  2.23927807765E+00
  2.29458824617E+00  2.35126457585E+00  2.40934081087E+00  2.46885152890E+00
  2.52983216166E+00  2.59231901606E+00  2.65634929575E+00  2.72196112336E+00
  2.78919356310E+00  2.85808664411E+00  2.92868138422E+00  3.00101981441E+00
  3.07514500383E+00  3.15110108542E+00  3.22893328223E+00  3.30868793430E+00
  3.39041252628E+00  3.47415571568E+00  3.55996736186E+00  3.64789855570E+00
  3.73800165002E+00  3.83033029078E+00  3.92493944896E+00  4.02188545335E+00
  4.12122602405E+00  4.22302030684E+00  4.32732890842E+00  4.43421393246E+00
  4.54373901659E+00  4.65596937030E+00  4.77097181375E+00  4.88881481754E+00
  5.00956854354E+00  5.13330488656E+00  5.26009751726E+00  5.39002192594E+00
  5.52315546751E+00  5.65957740756E+00  5.79936896952E+00  5.94261338307E+00
  6.08939593363E+00  6.23980401319E+00  6.39392717232E+00  6.55185717347E+00
  6.71368804566E+00  6.87951614039E+00  7.04944018905E+00  7.22356136172E+00
  7.40198332736E+00  7.58481231554E+00  7.77215717974E+00  7.96412946208E+00
  8.16084345979E+00  8.36241629325E+00  8.56896797569E+00  8.78062148469E+00
  8.99750283536E+00  9.21974115540E+00  9.44746876193E+00  9.68082124035E+00
  9.91993752499E+00  1.01649599819E+01  1.04160344934E+01  1.06733105454E+01
  1.09369413159E+01  1.12070837664E+01  1.14838987354E+01  1.17675510342E+01
  1.20582095447E+01  1.23560473205E+01  1.26612416893E+01  1.29739743590E+01
  1.32944315257E+01  1.36228039844E+01  1.39592872428E+01  1.43040816377E+01
  1.46573924541E+01  1.50194300477E+01  1.53904099699E+01  1.57705530962E+01
  1.61600857576E+01  1.65592398759E+01  1.69682531008E+01  1.73873689524E+01
  1.78168369655E+01  1.82569128386E+01  1.87078585857E+01  1.91699426927E+01
  1.96434402772E+01  2.01286332521E+01  2.06258104934E+01  2.11352680126E+01
  2.16573091325E+01  2.21922446681E+01  2.27403931114E+01  2.33020808212E+01
  2.38776422175E+01  2.44674199803E+01  2.50717652538E+01  2.56910378556E+01
  2.63256064906E+01  2.69758489709E+01  2.76421524405E+01  2.83249136058E+01
  2.90245389719E+01  2.97414450845E+01  3.04760587780E+01  3.12288174299E+01
  3.20001692204E+01  3.27905734001E+01  3.36005005631E+01  3.44304329270E+01
  3.52808646203E+01  3.61523019764E+01  3.70452638353E+01  3.79602818520E+01
  3.88979008137E+01  3.98586789638E+01  4.08431883342E+01  4.18520150861E+01
  4.28857598587E+01  4.39450381272E+01  4.50304805690E+01  4.61427334390E+01
  4.72824589550E+01  4.84503356912E+01  4.96470589827E+01  5.08733413396E+01
  5.21299128707E+01  5.34175217186E+01  5.47369345050E+01  5.60889367873E+01
  5.74743335260E+01  5.88939495641E+01  6.03486301183E+01  6.18392412822E+01
  6.33666705419E+01  6.49318273043E+01  6.65356434387E+01  6.81790738316E+01
  6.98630969553E+01  7.15887154501E+01  7.33569567217E+01  7.51688735527E+01
  7.70255447294E+01
  </PP_R>
  <PP_RAB>
  3.04998585294E-05  3.12532050351E-05  3.20251591995E-05  3.28161806317E-05
  3.36267402933E-05  3.44573207785E-05  3.53084166018E-05  3.61805344918E-05
  3.70741936938E-05  3.79899262780E-05  3.89282774571E-05  3.98898059103E-05
  4.08750841163E-05  4.18846986939E-05  4.29192507517E-05  4.39793562452E-05
  4.50656463445E-05  4.61787678092E-05  4.73193833741E-05  4.84881721434E-05
  4.96858299954E-05  5.09130699963E-05  5.21706228252E-05  5.34592372089E-05
  5.47796803680E-05  5.61327384731E-05  5.75192171134E-05  5.89399417761E-05
  6.03957583379E-05  6.18875335689E-05  6.34161556480E-05  6.49825346926E-05
  6.65876032995E-05  6.82323171010E-05  6.99176553334E-05  7.16446214201E-05
  7.34142435692E-05  7.52275753853E-05  7.70856964973E-05  7.89897132008E-05
  8.09407591169E-05  8.29399958671E-05  8.49886137650E-05  8.70878325250E-05
  8.92389019883E-05  9.14431028675E-05  9.37017475083E-05  9.60161806717E-05
  9.83877803343E-05  1.00817958509E-04  1.03308162084E-04  1.05859873687E-04
  1.08474612567E-04  1.11153935498E-04  1.13899437705E-04  1.16712753816E-04
  1.19595558835E-04  1.22549569138E-04  1.25576543496E-04  1.28678284120E-04
  1.31856637738E-04  1.35113496690E-04  1.38450800058E-04  1.41870534820E-04
  1.45374737030E-04  1.48965493035E-04  1.52644940713E-04  1.56415270748E-04
  1.60278727936E-04  1.64237612516E-04  1.68294281545E-04  1.72451150299E-04
  1.76710693711E-04  1.81075447846E-04  1.85548011408E-04  1.90131047290E-04
  1.94827284158E-04  1.99639518076E-04  2.04570614173E-04  2.09623508343E-04
  2.14801208999E-04  2.20106798861E-04  2.25543436793E-04  2.31114359682E-04
  2.36822884366E-04  2.42672409610E-04  2.48666418127E-04  2.54808478655E-04
  2.61102248078E-04  2.67551473605E-04  2.74159995003E-04  2.80931746880E-04
  2.87870761028E-04  2.94981168825E-04  3.02267203695E-04  3.09733203627E-04
  3.17383613756E-04  3.25222989016E-04  3.33255996845E-04  3.41487419967E-04
  3.49922159240E-04  3.58565236573E-04  3.67421797916E-04  3.76497116325E-04
  3.85796595098E-04  3.95325770997E-04  4.05090317541E-04  4.15096048384E-04
  4.25348920779E-04  4.35855039122E-04  4.46620658589E-04  4.57652188856E-04
  4.68956197920E-04  4.80539416009E-04  4.92408739585E-04  5.04571235452E-04
  5.17034144968E-04  5.29804888349E-04  5.42891069091E-04  5.56300478497E-04
  5.70041100316E-04  5.84121115494E-04  5.98548907047E-04  6.13333065051E-04
  6.28482391758E-04  6.44005906834E-04  6.59912852733E-04  6.76212700195E-04
  6.92915153890E-04  7.10030158191E-04  7.27567903099E-04  7.45538830305E-04
  7.63953639414E-04  7.82823294307E-04  8.02159029677E-04  8.21972357710E-04
  8.42275074945E-04  8.63079269296E-04  8.84397327248E-04  9.06241941231E-04
  9.28626117179E-04  9.51563182273E-04  9.75066792876E-04  9.99150942660E-04
  1.02382997094E-03  1.04911857123E-03  1.07503179993E-03  1.10158508539E-03
  1.12879423700E-03  1.15667545466E-03  1.18524533839E-03  1.21452089824E-03
  1.24451956443E-03  1.27525919767E-03  1.30675809986E-03  1.33903502492E-03
  1.37210919004E-03  1.40600028703E-03  1.44072849412E-03  1.47631448793E-03
  1.51277945578E-03  1.55014510834E-03  1.58843369251E-03  1.62766800472E-03
  1.66787140443E-03  1.70906782812E-03  1.75128180348E-03  1.79453846402E-03
  1.83886356408E-03  1.88428349412E-03  1.93082529642E-03  1.97851668124E-03
  2.02738604327E-03  2.07746247854E-03  2.12877580176E-03  2.18135656406E-03
  2.23523607119E-03  2.29044640215E-03  2.34702042829E-03  2.40499183286E-03
  2.46439513114E-03  2.52526569088E-03  2.58763975344E-03  2.65155445535E-03
  2.71704785040E-03  2.78415893230E-03  2.85292765793E-03  2.92339497108E-03
  2.99560282687E-03  3.06959421669E-03  3.14541319384E-03  3.22310489973E-03
  3.30271559075E-03  3.38429266584E-03  3.46788469469E-03  3.55354144665E-03
  3.64131392038E-03  3.73125437422E-03  3.82341635726E-03  3.91785474128E-03
  4.01462575339E-03  4.11378700950E-03  4.21539754864E-03  4.31951786809E-03
  4.42620995943E-03  4.53553734543E-03  4.64756511786E-03  4.76235997627E-03
  4.87999026768E-03  5.00052602730E-03  5.12403902017E-03  5.25060278397E-03
  5.38029267273E-03  5.51318590175E-03  5.64936159352E-03  5.78890082488E-03
  5.93188667526E-03  6.07840427614E-03  6.22854086176E-03  6.38238582104E-03
  6.54003075082E-03  6.70156951037E-03  6.86709827727E-03  7.03671560472E-03
  7.21052248016E-03  7.38862238542E-03  7.57112135834E-03  7.75812805589E-03
  7.94975381887E-03  8.14611273820E-03  8.34732172283E-03  8.55350056938E-03
  8.76477203345E-03  8.98126190267E-03  9.20309907167E-03  9.43041561874E-03
  9.66334688452E-03  9.90203155257E-03  1.01466117319E-02  1.03972330417E-02
  1.06540446978E-02  1.09171996019E-02  1.11868544320E-02  1.14631697365E-02
  1.17463100290E-02  1.20364438867E-02  1.23337440507E-02  1.26383875288E-02
  1.29505557007E-02  1.32704344265E-02  1.35982141569E-02  1.39340900465E-02
  1.42782620707E-02  1.46309351438E-02  1.49923192419E-02  1.53626295272E-02
  1.57420864765E-02  1.61309160125E-02  1.65293496380E-02  1.69376245740E-02
  1.73559839010E-02  1.77846767033E-02  1.82239582179E-02  1.86740899859E-02
  1.91353400086E-02  1.96079829068E-02  2.00923000846E-02  2.05885798967E-02
  2.10971178201E-02  2.16182166303E-02  2.21521865810E-02  2.26993455896E-02
  2.32600194256E-02  2.38345419055E-02  2.44232550905E-02  2.50265094913E-02
  2.56446642757E-02  2.62780874833E-02  2.69271562441E-02  2.75922570034E-02
  2.82737857513E-02  2.89721482594E-02  2.96877603214E-02  3.04210480014E-02
  3.11724478870E-02  3.19424073498E-02  3.27313848113E-02  3.35398500162E-02
  3.43682843116E-02  3.52171809341E-02  3.60870453031E-02  3.69783953221E-02
  3.78917616866E-02  3.88276882002E-02  3.97867320988E-02  4.07694643816E-02
  4.17764701519E-02  4.28083489646E-02  4.38657151840E-02  4.49491983491E-02
  4.60594435483E-02  4.71971118039E-02  4.83628804655E-02  4.95574436130E-02
  5.07815124702E-02  5.20358158283E-02  5.33211004792E-02  5.46381316610E-02
  5.59876935131E-02  5.73705895428E-02  5.87876431046E-02  6.02396978892E-02
  6.17276184271E-02  6.32522906023E-02  6.48146221801E-02  6.64155433480E-02
  6.80560072687E-02  6.97369906482E-02  7.14594943172E-02  7.32245438269E-02
  7.50331900594E-02  7.68865098538E-02  7.87856066472E-02  8.07316111314E-02
  8.27256819264E-02  8.47690062699E-02  8.68628007248E-02  8.90083119027E-02
  9.12068172067E-02  9.34596255917E-02  9.57680783438E-02  9.81335498789E-02
  1.00557448561E-01  1.03041217540E-01  1.05586335614E-01  1.08194318103E-01
  1.10866717760E-01  1.13605125689E-01  1.16411172294E-01  1.19286528249E-01
  1.22232905497E-01  1.25252058263E-01  1.28345784102E-01  1.31515924969E-01
  1.34764368316E-01  1.38093048213E-01  1.41503946504E-01  1.44999093983E-01
  1.48580571604E-01  1.52250511723E-01  1.56011099362E-01  1.59864573517E-01
  1.63813228483E-01  1.67859415226E-01  1.72005542782E-01  1.76254079689E-01
  1.80607555457E-01  1.85068562077E-01  1.89639755560E-01  1.94323857523E-01
  1.99123656803E-01  2.04042011127E-01  2.09081848801E-01  2.14246170467E-01
  2.19538050877E-01  2.24960640734E-01  2.30517168560E-01  2.36210942624E-01
  2.42045352906E-01  2.48023873123E-01  2.54150062789E-01  2.60427569340E-01
  2.66860130303E-01  2.73451575521E-01  2.80205829437E-01  2.87126913424E-01
  2.94218948185E-01  3.01486156206E-01  3.08932864264E-01  3.16563506011E-01
  3.24382624610E-01  3.32394875437E-01  3.40605028861E-01  3.49017973074E-01
  3.57638717009E-01  3.66472393319E-01  3.75524261434E-01  3.84799710691E-01
  3.94304263545E-01  4.04043578855E-01  4.14023455252E-01  4.24249834597E-01
  4.34728805512E-01  4.45466607008E-01  4.56469632201E-01  4.67744432116E-01
  4.79297719590E-01  4.91136373263E-01  5.03267441683E-01  5.15698147493E-01
  5.28435891736E-01  5.41488258261E-01  5.54863018241E-01  5.68568134791E-01
  5.82611767720E-01  5.97002278383E-01  6.11748234659E-01  6.26858416055E-01
  6.42341818932E-01  6.58207661859E-01  6.74465391107E-01  6.91124686268E-01
  7.08195466019E-01  7.25687894029E-01  7.43612385012E-01  7.61979610922E-01
  7.80800507311E-01  8.00086279842E-01  8.19848410954E-01  8.40098666705E-01
  8.60849103772E-01  8.82112076635E-01  9.03900244928E-01  9.26226580978E-01
  9.49104377528E-01  9.72547255653E-01  9.96569172868E-01  1.02118443144E+00
  1.04640768689E+00  1.07225395676E+00  1.09873862949E+00  1.12587747364E+00
  1.15368664724E+00  1.18218270743E+00  1.21138262030E+00  1.24130377102E+00
  1.27196397417E+00  1.30338148433E+00  1.33557500699E+00  1.36856370966E+00
  1.40236723329E+00  1.43700570395E+00  1.47249974484E+00  1.50887048854E+00
  1.54613958961E+00  1.58432923747E+00  1.62346216963E+00  1.66356168522E+00
  1.70465165885E+00  1.74675655482E+00  1.78990144173E+00  1.83411200734E+00
  1.87941457392E+00
  </PP_RAB>
</PP_MESH>


<PP_NLCC>
  8.35621964402E-01  8.35621964325E-01  8.35621964242E-01  8.35621964152E-01
  8.35621964055E-01  8.35621963951E-01  8.35621963838E-01  8.35621963717E-01
  8.35621963586E-01  8.35621963446E-01  8.35621963294E-01  8.35621963130E-01
  8.35621962953E-01  8.35621962762E-01  8.35621962557E-01  8.35621962335E-01
  8.35621962096E-01  8.35621961838E-01  8.35621961560E-01  8.35621961260E-01
  8.35621960936E-01  8.35621960587E-01  8.35621960210E-01  8.35621959804E-01
  8.35621959365E-01  8.35621958891E-01  8.35621958380E-01  8.35621957829E-01
  8.35621957233E-01  8.35621956591E-01  8.35621955897E-01  8.35621955148E-01
  8.35621954339E-01  8.35621953467E-01  8.35621952524E-01  8.35621951506E-01
  8.35621950406E-01  8.35621949219E-01  8.35621947936E-01  8.35621946551E-01
  8.35621945054E-01  8.35621943437E-01  8.35621941690E-01  8.35621939802E-01
  8.35621937762E-01  8.35621935557E-01  8.35621933173E-01  8.35621930597E-01
  8.35621927812E-01  8.35621924801E-01  8.35621921545E-01  8.35621918025E-01
  8.35621914217E-01  8.35621910099E-01  8.35621905645E-01  8.35621900827E-01
  8.35621895614E-01  8.35621889974E-01  8.35621883871E-01  8.35621877266E-01
  8.35621870117E-01  8.35621862379E-01  8.35621854002E-01  8.35621844933E-01
  8.35621835112E-01  8.35621824478E-01  8.35621812960E-01  8.35621800485E-01
  8.35621786971E-01  8.35621772330E-01  8.35621756466E-01  8.35621739276E-01
  8.35621720644E-01  8.35621700450E-01  8.35621678559E-01  8.35621654825E-01
  8.35621629090E-01  8.35621601183E-01  8.35621570916E-01  8.35621538085E-01
  8.35621502469E-01  8.35621463828E-01  8.35621421898E-01  8.35621376393E-01
  8.35621327005E-01  8.35621273393E-01  8.35621215189E-01  8.35621151992E-01
  8.35621083365E-01  8.35621008831E-01  8.35620927873E-01  8.35620839924E-01
  8.35620744370E-01  8.35620640538E-01  8.35620527698E-01  8.35620405052E-01
  8.35620271731E-01  8.35620126787E-01  8.35619969186E-01  8.35619797802E-01
  8.35619611405E-01  8.35619408654E-01  8.35619188087E-01  8.35618948107E-01
  8.35618686974E-01  8.35618402786E-01  8.35618093471E-01  8.35617756764E-01
  8.35617390194E-01  8.35616991066E-01  8.35616556433E-01  8.35616083080E-01
  8.35615567497E-01  8.35615005850E-01  8.35614393951E-01  8.35613727227E-01
  8.35613000682E-01  8.35612208859E-01  8.35611345796E-01  8.35610404981E-01
  8.35609379297E-01  8.35608260968E-01  8.35607041495E-01  8.35605711595E-01
  8.35604261119E-01  8.35602678975E-01  8.35600953041E-01  8.35599070068E-01
  8.35597015572E-01  8.35594773722E-01  8.35592327211E-01  8.35589657120E-01
  8.35586742767E-01  8.35583561540E-01  8.35580088719E-01  8.35576297277E-01
  8.35572157667E-01  8.35567637583E-01  8.35562701705E-01  8.35557311416E-01
  8.35551424496E-01  8.35544994786E-01  8.35537971817E-01  8.35530300414E-01
  8.35521920255E-01  8.35512765394E-01  8.35502763737E-01  8.35491836471E-01
  8.35479897446E-01  8.35466852487E-01  8.35452598661E-01  8.35437023460E-01
  8.35420003925E-01  8.35401405677E-01  8.35381081869E-01  8.35358872044E-01
  8.35334600882E-01  8.35308076843E-01  8.35279090687E-01  8.35247413858E-01
  8.35212796725E-01  8.35174966676E-01  8.35133626033E-01  8.35088449785E-01
  8.35039083133E-01  8.34985138807E-01  8.34926194162E-01  8.34861788013E-01
  8.34791417210E-01  8.34714532909E-01  8.34630536533E-01  8.34538775388E-01
  8.34438537918E-01  8.34329048555E-01  8.34209462145E-01  8.34078857926E-01
  8.33936232996E-01  8.33780495271E-01  8.33610455867E-01  8.33424820878E-01
  8.33222182514E-01  8.33001009539E-01  8.32759636978E-01  8.32496255045E-01
  8.32208897231E-01  8.31895427515E-01  8.31553526642E-01  8.31180677410E-01
  8.30774148927E-01  8.30330979769E-01  8.29847959999E-01  8.29321611994E-01
  8.28748170027E-01  8.28123558560E-01  8.27443369217E-01  8.26702836386E-01
  8.25896811432E-01  8.25019735505E-01  8.24065610927E-01  8.23027971173E-01
  8.21899849461E-01  8.20673746008E-01  8.19341594000E-01  8.17894724390E-01
  8.16323829636E-01  8.14618926549E-01  8.12769318462E-01  8.10763556976E-01
  8.08589403591E-01  8.06233791615E-01  8.03682788802E-01  8.00921561248E-01
  7.97934339203E-01  7.94704385511E-01  7.91213967563E-01  7.87444333747E-01
  7.83375695533E-01  7.78987216504E-01  7.74257009812E-01  7.69162145741E-01
  7.63678671259E-01  7.57781643697E-01  7.51445180904E-01  7.44642530514E-01
  7.37346161217E-01  7.29527879240E-01  7.21158973485E-01  7.12210393119E-01
  7.02652961654E-01  6.92457631842E-01  6.81595785950E-01  6.70039586159E-01
  6.57762379984E-01  6.44739165605E-01  6.30947121955E-01  6.16366208122E-01
  6.00979836161E-01  5.84775620667E-01  5.67746207367E-01  5.49890181453E-01
  5.31213054283E-01  5.11728324320E-01  4.91458604561E-01  4.70436804068E-01
  4.48707345274E-01  4.26327391296E-01  4.03368048112E-01  3.79915494839E-01
  3.56071980950E-01  3.31956611535E-01  3.07705819984E-01  2.83473400929E-01
  2.59429943922E-01  2.35761469161E-01  2.12667019019E-01  1.90354901845E-01
  1.69037215403E-01  1.48922194286E-01  1.30203825975E-01  1.13048060879E-01
  9.75747988984E-02  8.38346646579E-02  7.17793802643E-02  6.12492976960E-02
  5.20772824403E-02  4.41170510699E-02  3.72340077515E-02  3.13048341577E-02
  2.62170277684E-02  2.18683973022E-02  1.81665240892E-02  1.50281980752E-02
  1.23788368540E-02  1.01518956733E-02  8.28827578738E-03  6.73573785868E-03
  5.44832638264E-03  4.38581033887E-03  3.51314449345E-03  2.79995500343E-03
  2.22005222387E-03  1.75097290203E-03  1.37355327126E-03  1.07153393632E-03
  8.31196877683E-04  6.41034398314E-04  4.91449395147E-04  3.74485959963E-04
  2.83589000915E-04  2.13391325033E-04  1.59526431602E-04  1.18465133032E-04
  8.73740395205E-05  6.39939115134E-05  4.65358941431E-05  3.35936945649E-05
  2.40698401913E-05  1.71142571167E-05  1.20735274984E-05  8.44931662404E-06
  5.86459965473E-06  4.03645993534E-06  2.75437132918E-06  1.86301296643E-06
  1.24879349497E-06  8.29381470506E-07  5.45647630925E-07  3.55522750124E-07
  2.29361329660E-07  1.46476743288E-07  9.25780982132E-08  5.78937544260E-08
  3.58120441866E-08  2.19072421251E-08  1.32492682980E-08  7.91996227482E-09
  4.67799527224E-09  2.72946293908E-09  1.57270586905E-09  8.94621959395E-10
  5.02248734990E-10  2.78193819513E-10  1.51979143154E-10  8.18621886281E-11
  4.34607105108E-11  2.27337922338E-11  1.17125688080E-11  5.94124237959E-12
  2.96607965369E-12  1.45680085804E-12  7.03649779865E-13  3.34098627399E-13
  1.55873717919E-13  7.14274052897E-14  3.21336184150E-14  1.41860453403E-14
  6.14284039151E-15  2.60781895251E-15  1.08486297741E-15  4.42023294523E-16
  1.76305684701E-16  6.88035402356E-17  2.62570043899E-17  9.79332398962E-18
  3.56796095388E-18  1.26900447604E-18  4.40352784131E-19  1.48993252582E-19
  4.91232904541E-20  1.57713941013E-20  4.92753465476E-21  0.00000000000E+00
  0.00000000000E+00  0.00000000000E+00  0.00000000000E+00  0.00000000000E+00
  0.00000000000E+00  0.00000000000E+00  0.00000000000E+00  0.00000000000E+00
  0.00000000000E+00  0.00000000000E+00  0.00000000000E+00  0.00000000000E+00
  0.00000000000E+00  0.00000000000E+00  0.00000000000E+00  0.00000000000E+00
  0.00000000000E+00  0.00000000000E+00  0.00000000000E+00  0.00000000000E+00
  0.00000000000E+00  0.00000000000E+00  0.00000000000E+00  0.00000000000E+00
  0.00000000000E+00  0.00000000000E+00  0.00000000000E+00  0.00000000000E+00
  0.00000000000E+00  0.00000000000E+00  0.00000000000E+00  0.00000000000E+00
  0.00000000000E+00  0.00000000000E+00  0.00000000000E+00  0.00000000000E+00
  0.00000000000E+00  0.00000000000E+00  0.00000000000E+00  0.00000000000E+00
  0.00000000000E+00  0.00000000000E+00  0.00000000000E+00  0.00000000000E+00
  0.00000000000E+00  0.00000000000E+00  0.00000000000E+00  0.00000000000E+00
  0.00000000000E+00  0.00000000000E+00  0.00000000000E+00  0.00000000000E+00
  0.00000000000E+00  0.00000000000E+00  0.00000000000E+00  0.00000000000E+00
  0.00000000000E+00  0.00000000000E+00  0.00000000000E+00  0.00000000000E+00
  0.00000000000E+00  0.00000000000E+00  0.00000000000E+00  0.00000000000E+00
  0.00000000000E+00  0.00000000000E+00  0.00000000000E+00  0.00000000000E+00
  0.00000000000E+00  0.00000000000E+00  0.00000000000E+00  0.00000000000E+00
  0.00000000000E+00  0.00000000000E+00  0.00000000000E+00  0.00000000000E+00
  0.00000000000E+00  0.00000000000E+00  0.00000000000E+00  0.00000000000E+00
  0.00000000000E+00  0.00000000000E+00  0.00000000000E+00  0.00000000000E+00
  0.00000000000E+00  0.00000000000E+00  0.00000000000E+00  0.00000000000E+00
  0.00000000000E+00  0.00000000000E+00  0.00000000000E+00  0.00000000000E+00
  0.00000000000E+00  0.00000000000E+00  0.00000000000E+00  0.00000000000E+00
  0.00000000000E+00  0.00000000000E+00  0.00000000000E+00  0.00000000000E+00
  0.00000000000E+00
</PP_NLCC>


<PP_LOCAL>
 -7.46561619752E+00 -7.46561667066E+00 -7.46561713073E+00 -7.46561757799E+00
 -7.46561801264E+00 -7.46561843491E+00 -7.46561884500E+00 -7.46561924310E+00
 -7.46561962939E+00 -7.46562000405E+00 -7.46562036725E+00 -7.46562071914E+00
 -7.46562105985E+00 -7.46562138954E+00 -7.46562170832E+00 -7.46562201632E+00
 -7.46562231362E+00 -7.46562260034E+00 -7.46562287655E+00 -7.46562314233E+00
 -7.46562339774E+00 -7.46562364283E+00 -7.46562387765E+00 -7.46562410223E+00
 -7.46562431658E+00 -7.46562452071E+00 -7.46562471462E+00 -7.46562489828E+00
 -7.46562507167E+00 -7.46562523474E+00 -7.46562538744E+00 -7.46562552970E+00
 -7.46562566142E+00 -7.46562578252E+00 -7.46562589287E+00 -7.46562599235E+00
 -7.46562608081E+00 -7.46562615808E+00 -7.46562622399E+00 -7.46562627833E+00
 -7.46562632089E+00 -7.46562635144E+00 -7.46562636971E+00 -7.46562637542E+00
 -7.46562636829E+00 -7.46562634798E+00 -7.46562631416E+00 -7.46562626644E+00
 -7.46562620444E+00 -7.46562612774E+00 -7.46562603587E+00 -7.46562592838E+00
 -7.46562580474E+00 -7.46562566442E+00 -7.46562550685E+00 -7.46562533142E+00
 -7.46562513748E+00 -7.46562492435E+00 -7.46562469133E+00 -7.46562443764E+00
 -7.46562416248E+00 -7.46562386502E+00 -7.46562354435E+00 -7.46562319953E+00
 -7.46562282957E+00 -7.46562243343E+00 -7.46562201000E+00 -7.46562155812E+00
 -7.46562107658E+00 -7.46562056408E+00 -7.46562001928E+00 -7.46561944076E+00
 -7.46561882703E+00 -7.46561817651E+00 -7.46561748756E+00 -7.46561675844E+00
 -7.46561598735E+00 -7.46561517236E+00 -7.46561431147E+00 -7.46561340258E+00
 -7.46561244349E+00 -7.46561143186E+00 -7.46561036528E+00 -7.46560924120E+00