
     Program PWSCF v.6.4.1 starts on  1Jul2020 at  1:15:52 

     This program is part of the open-source Quantum ESPRESSO suite
     for quantum simulation of materials; please cite
         "P. Giannozzi et al., J. Phys.:Condens. Matter 21 395502 (2009);
         "P. Giannozzi et al., J. Phys.:Condens. Matter 29 465901 (2017);
          URL http://www.quantum-espresso.org", 
     in publications or presentations arising from this work. More details at
     http://www.quantum-espresso.org/quote

     Parallel version (MPI), running on     4 processors

     MPI processes distributed on     1 nodes
     K-points division:     npool     =       4
     Waiting for input...
     Reading input from standard input
     Message from routine read_cards :
     DEPRECATED: no units specified in CELL_PARAMETERS card
Warning: card &IONS ignored
Warning: card / ignored
Warning: card &CELL ignored
Warning: card / ignored

     Current dimensions of program PWSCF are:
     Max number of different atomic species (ntypx) = 10
     Max number of k-points (npk) =  40000
     Max angular momentum in pseudopotentials (lmaxx) =  3
               file b.cpi.UPF: wavefunction(s)  3d 4f renormalized
               file n.cpi.UPF: wavefunction(s)  3d 4f renormalized

     Subspace diagonalization in iterative solution of the eigenvalue problem:
     a serial algorithm will be used

     Message from routine setup:
     DEPRECATED: symmetry with ibrav=0, use correct ibrav instead
 
     G-vector sticks info
     --------------------
     sticks:   dense  smooth     PW     G-vecs:    dense   smooth      PW
     Sum         433     433    151                58197    58197   11139
 


     bravais-lattice index     =            0
     lattice parameter (alat)  =       4.7319  a.u.
     unit-cell volume          =     734.0406 (a.u.)^3
     number of atoms/cell      =            2
     number of atomic types    =            2
     number of electrons       =         8.00
     number of Kohn-Sham states=           16
     kinetic-energy cutoff     =      70.0000  Ry
     charge density cutoff     =     280.0000  Ry
     convergence threshold     =      1.0E-10
     mixing beta               =       0.7000
     number of iterations used =            8  plain     mixing
     Exchange-correlation      = SLA  PZ   NOGX NOGC ( 1  1  0  0 0 0)

     celldm(1)=   4.731874  celldm(2)=   0.000000  celldm(3)=   0.000000
     celldm(4)=   0.000000  celldm(5)=   0.000000  celldm(6)=   0.000000

     crystal axes: (cart. coord. in units of alat)
               a(1) = (   1.000000   0.000000   0.000000 )  
               a(2) = (  -0.500000   0.866025   0.000000 )  
               a(3) = (   0.000000   0.000000   8.000000 )  

     reciprocal axes: (cart. coord. in units 2 pi/alat)
               b(1) = (  1.000000  0.577350  0.000000 )  
               b(2) = (  0.000000  1.154701  0.000000 )  
               b(3) = (  0.000000  0.000000  0.125000 )  


     PseudoPot. # 1 for B  read from file:
     ./b.cpi.UPF
     MD5 check sum: aadced629ac320abbac2d4088521b25e
     Pseudo is Norm-conserving + core correction, Zval =  3.0
     Generated by new atomic code, or converted to UPF format
     Using radial grid of  453 points,  3 beta functions with: 
                l(1) =   0
                l(2) =   1
                l(3) =   2

     PseudoPot. # 2 for N  read from file:
     ./n.cpi.UPF
     MD5 check sum: ff6dad263d6aed986b71703111ab3f52
     Pseudo is Norm-conserving, Zval =  5.0
     Generated by new atomic code, or converted to UPF format
     Using radial grid of  467 points,  3 beta functions with: 
                l(1) =   0
                l(2) =   1
                l(3) =   2

     atomic species   valence    mass     pseudopotential
        B              3.00    10.81100     B ( 1.00)
        N              5.00    14.00700     N ( 1.00)

     12 Sym. Ops. (no inversion) found


                                    s                        frac. trans.

      isym =  1     identity                                     

 cryst.   s( 1) = (     1          0          0      )
                  (     0          1          0      )
                  (     0          0          1      )

 cart.    s( 1) = (  1.0000000  0.0000000  0.0000000 )
                  (  0.0000000  1.0000000  0.0000000 )
                  (  0.0000000  0.0000000  1.0000000 )


      isym =  2     180 deg rotation - cart. axis [0,1,0]        

 cryst.   s( 2) = (    -1          0          0      )
                  (     1          1          0      )
                  (     0          0         -1      )

 cart.    s( 2) = ( -1.0000000  0.0000000  0.0000000 )
                  (  0.0000000  1.0000000  0.0000000 )
                  (  0.0000000  0.0000000 -1.0000000 )


      isym =  3     120 deg rotation - cryst. axis [0,0,1]       

 cryst.   s( 3) = (     0          1          0      )
                  (    -1         -1          0      )
                  (     0          0          1      )

 cart.    s( 3) = ( -0.5000000 -0.8660254  0.0000000 )
                  (  0.8660254 -0.5000000  0.0000000 )
                  (  0.0000000  0.0000000  1.0000000 )


      isym =  4     120 deg rotation - cryst. axis [0,0,-1]      

 cryst.   s( 4) = (    -1         -1          0      )
                  (     1          0          0      )
                  (     0          0          1      )

 cart.    s( 4) = ( -0.5000000  0.8660254  0.0000000 )
                  ( -0.8660254 -0.5000000  0.0000000 )
                  (  0.0000000  0.0000000  1.0000000 )


      isym =  5     180 deg rotation - cryst. axis [1,-1,0]      

 cryst.   s( 5) = (     0         -1          0      )
                  (    -1          0          0      )
                  (     0          0         -1      )

 cart.    s( 5) = (  0.5000000 -0.8660254  0.0000000 )
                  ( -0.8660254 -0.5000000  0.0000000 )
                  (  0.0000000  0.0000000 -1.0000000 )


      isym =  6     180 deg rotation - cryst. axis [2,1,0]       

 cryst.   s( 6) = (     1          1          0      )
                  (     0         -1          0      )
                  (     0          0         -1      )

 cart.    s( 6) = (  0.5000000  0.8660254  0.0000000 )
                  (  0.8660254 -0.5000000  0.0000000 )
                  (  0.0000000  0.0000000 -1.0000000 )


      isym =  7     inv. 180 deg rotation - cart. axis [0,0,1]   

 cryst.   s( 7) = (     1          0          0      )
                  (     0          1          0      )
                  (     0          0         -1      )

 cart.    s( 7) = (  1.0000000  0.0000000  0.0000000 )
                  (  0.0000000  1.0000000  0.0000000 )
                  (  0.0000000  0.0000000 -1.0000000 )


      isym =  8     inv. 180 deg rotation - cart. axis [1,0,0]   

 cryst.   s( 8) = (    -1          0          0      )
                  (     1          1          0      )
                  (     0          0          1      )

 cart.    s( 8) = ( -1.0000000  0.0000000  0.0000000 )
                  (  0.0000000  1.0000000  0.0000000 )
                  (  0.0000000  0.0000000  1.0000000 )


      isym =  9     inv.  60 deg rotation - cryst. axis [0,0,1]  

 cryst.   s( 9) = (    -1         -1          0      )
                  (     1          0          0      )
                  (     0          0         -1      )

 cart.    s( 9) = ( -0.5000000  0.8660254  0.0000000 )
                  ( -0.8660254 -0.5000000  0.0000000 )
                  (  0.0000000  0.0000000 -1.0000000 )


      isym = 10     inv.  60 deg rotation - cryst. axis [0,0,-1] 

 cryst.   s(10) = (     0          1          0      )
                  (    -1         -1          0      )
                  (     0          0         -1      )

 cart.    s(10) = ( -0.5000000 -0.8660254  0.0000000 )
                  (  0.8660254 -0.5000000  0.0000000 )
                  (  0.0000000  0.0000000 -1.0000000 )


      isym = 11     inv. 180 deg rotation - cryst. axis [0,1,0]  

 cryst.   s(11) = (     1          1          0      )
                  (     0         -1          0      )
                  (     0          0          1      )

 cart.    s(11) = (  0.5000000  0.8660254  0.0000000 )
                  (  0.8660254 -0.5000000  0.0000000 )
                  (  0.0000000  0.0000000  1.0000000 )


      isym = 12     inv. 180 deg rotation - cryst. axis [1,1,0]  

 cryst.   s(12) = (     0         -1          0      )
                  (    -1          0          0      )
                  (     0          0          1      )

 cart.    s(12) = (  0.5000000 -0.8660254  0.0000000 )
                  ( -0.8660254 -0.5000000  0.0000000 )
                  (  0.0000000  0.0000000  1.0000000 )


   Cartesian axes

     site n.     atom                  positions (alat units)
         1           B   tau(   1) = (  -0.0000000   0.5773503   4.0000000  )
         2           N   tau(   2) = (   0.5000000   0.2886751   4.0000000  )

   Crystallographic axes

     site n.     atom                  positions (cryst. coord.)
         1           B   tau(   1) = (  0.3333333  0.6666667  0.5000000  )
         2           N   tau(   2) = (  0.6666667  0.3333333  0.5000000  )

     number of k points=   156
                       cart. coord. in units 2pi/alat
        k(    1) = (   0.0208333   0.0360844   0.0000000), wk =   0.0069444
        k(    2) = (   0.0208333   0.0841969   0.0000000), wk =   0.0138889
        k(    3) = (   0.0208333   0.1323094   0.0000000), wk =   0.0138889
        k(    4) = (   0.0208333   0.1804220   0.0000000), wk =   0.0138889
        k(    5) = (   0.0208333   0.2285345   0.0000000), wk =   0.0138889
        k(    6) = (   0.0208333   0.2766470   0.0000000), wk =   0.0138889
        k(    7) = (   0.0208333   0.3247595   0.0000000), wk =   0.0138889
        k(    8) = (   0.0208333   0.3728720   0.0000000), wk =   0.0138889
        k(    9) = (   0.0208333   0.4209846   0.0000000), wk =   0.0138889
        k(   10) = (   0.0208333   0.4690971   0.0000000), wk =   0.0138889
        k(   11) = (   0.0208333   0.5172096   0.0000000), wk =   0.0138889
        k(   12) = (   0.0208333   0.5653221   0.0000000), wk =   0.0138889
        k(   13) = (   0.0208333  -0.5412659   0.0000000), wk =   0.0138889
        k(   14) = (   0.0208333  -0.4931534   0.0000000), wk =   0.0138889
        k(   15) = (   0.0208333  -0.4450408   0.0000000), wk =   0.0138889
        k(   16) = (   0.0208333  -0.3969283   0.0000000), wk =   0.0138889
        k(   17) = (   0.0208333  -0.3488158   0.0000000), wk =   0.0138889
        k(   18) = (   0.0208333  -0.3007033   0.0000000), wk =   0.0138889
        k(   19) = (   0.0208333  -0.2525907   0.0000000), wk =   0.0138889
        k(   20) = (   0.0208333  -0.2044782   0.0000000), wk =   0.0138889
        k(   21) = (   0.0208333  -0.1563657   0.0000000), wk =   0.0138889
        k(   22) = (   0.0208333  -0.1082532   0.0000000), wk =   0.0138889
        k(   23) = (   0.0208333  -0.0601407   0.0000000), wk =   0.0138889
        k(   24) = (   0.0208333  -0.0120281   0.0000000), wk =   0.0069444
        k(   25) = (   0.0625000   0.1082532   0.0000000), wk =   0.0069444
        k(   26) = (   0.0625000   0.1563657   0.0000000), wk =   0.0138889
        k(   27) = (   0.0625000   0.2044782   0.0000000), wk =   0.0138889
        k(   28) = (   0.0625000   0.2525907   0.0000000), wk =   0.0138889
        k(   29) = (   0.0625000   0.3007033   0.0000000), wk =   0.0138889
        k(   30) = (   0.0625000   0.3488158   0.0000000), wk =   0.0138889
        k(   31) = (   0.0625000   0.3969283   0.0000000), wk =   0.0138889
        k(   32) = (   0.0625000   0.4450408   0.0000000), wk =   0.0138889
        k(   33) = (   0.0625000   0.4931534   0.0000000), wk =   0.0138889
        k(   34) = (   0.0625000   0.5412659   0.0000000), wk =   0.0138889
        k(   35) = (   0.0625000   0.5893784   0.0000000), wk =   0.0138889
        k(   36) = (   0.0625000  -0.5172096   0.0000000), wk =   0.0138889
        k(   37) = (   0.0625000  -0.4690971   0.0000000), wk =   0.0138889
        k(   38) = (   0.0625000  -0.4209846   0.0000000), wk =   0.0138889
        k(   39) = (   0.0625000  -0.3728720   0.0000000), wk =   0.0138889
        k(   40) = (   0.0625000  -0.3247595   0.0000000), wk =   0.0138889
        k(   41) = (   0.0625000  -0.2766470   0.0000000), wk =   0.0138889
        k(   42) = (   0.0625000  -0.2285345   0.0000000), wk =   0.0138889
        k(   43) = (   0.0625000  -0.1804220   0.0000000), wk =   0.0138889
        k(   44) = (   0.0625000  -0.1323094   0.0000000), wk =   0.0138889
        k(   45) = (   0.0625000  -0.0841969   0.0000000), wk =   0.0138889
        k(   46) = (   0.0625000  -0.0360844   0.0000000), wk =   0.0069444
        k(   47) = (   0.1041667   0.1804220   0.0000000), wk =   0.0069444
        k(   48) = (   0.1041667   0.2285345   0.0000000), wk =   0.0138889
        k(   49) = (   0.1041667   0.2766470   0.0000000), wk =   0.0138889
        k(   50) = (   0.1041667   0.3247595   0.0000000), wk =   0.0138889
        k(   51) = (   0.1041667   0.3728720   0.0000000), wk =   0.0138889
        k(   52) = (   0.1041667   0.4209846   0.0000000), wk =   0.0138889
        k(   53) = (   0.1041667   0.4690971   0.0000000), wk =   0.0138889
        k(   54) = (   0.1041667   0.5172096   0.0000000), wk =   0.0138889
        k(   55) = (   0.1041667   0.5653221   0.0000000), wk =   0.0138889
        k(   56) = (   0.1041667   0.6134347   0.0000000), wk =   0.0138889
        k(   57) = (   0.1041667  -0.4931534   0.0000000), wk =   0.0138889
        k(   58) = (   0.1041667  -0.4450408   0.0000000), wk =   0.0138889
        k(   59) = (   0.1041667  -0.3969283   0.0000000), wk =   0.0138889
        k(   60) = (   0.1041667  -0.3488158   0.0000000), wk =   0.0138889
        k(   61) = (   0.1041667  -0.3007033   0.0000000), wk =   0.0138889
        k(   62) = (   0.1041667  -0.2525907   0.0000000), wk =   0.0138889
        k(   63) = (   0.1041667  -0.2044782   0.0000000), wk =   0.0138889
        k(   64) = (   0.1041667  -0.1563657   0.0000000), wk =   0.0138889
        k(   65) = (   0.1041667  -0.1082532   0.0000000), wk =   0.0138889
        k(   66) = (   0.1041667  -0.0601407   0.0000000), wk =   0.0069444
        k(   67) = (   0.1458333   0.2525907   0.0000000), wk =   0.0069444
        k(   68) = (   0.1458333   0.3007033   0.0000000), wk =   0.0138889
        k(   69) = (   0.1458333   0.3488158   0.0000000), wk =   0.0138889
        k(   70) = (   0.1458333   0.3969283   0.0000000), wk =   0.0138889
        k(   71) = (   0.1458333   0.4450408   0.0000000), wk =   0.0138889
        k(   72) = (   0.1458333   0.4931534   0.0000000), wk =   0.0138889
        k(   73) = (   0.1458333   0.5412659   0.0000000), wk =   0.0138889
        k(   74) = (   0.1458333   0.5893784   0.0000000), wk =   0.0138889
        k(   75) = (   0.1458333   0.6374909   0.0000000), wk =   0.0138889
        k(   76) = (   0.1458333  -0.4690971   0.0000000), wk =   0.0138889
        k(   77) = (   0.1458333  -0.4209846   0.0000000), wk =   0.0138889
        k(   78) = (   0.1458333  -0.3728720   0.0000000), wk =   0.0138889
        k(   79) = (   0.1458333  -0.3247595   0.0000000), wk =   0.0138889
        k(   80) = (   0.1458333  -0.2766470   0.0000000), wk =   0.0138889
        k(   81) = (   0.1458333  -0.2285345   0.0000000), wk =   0.0138889
        k(   82) = (   0.1458333  -0.1804220   0.0000000), wk =   0.0138889
        k(   83) = (   0.1458333  -0.1323094   0.0000000), wk =   0.0138889
        k(   84) = (   0.1458333  -0.0841969   0.0000000), wk =   0.0069444
        k(   85) = (   0.1875000   0.3247595   0.0000000), wk =   0.0069444
        k(   86) = (   0.1875000   0.3728720   0.0000000), wk =   0.0138889
        k(   87) = (   0.1875000   0.4209846   0.0000000), wk =   0.0138889
        k(   88) = (   0.1875000   0.4690971   0.0000000), wk =   0.0138889
        k(   89) = (   0.1875000   0.5172096   0.0000000), wk =   0.0138889
        k(   90) = (   0.1875000   0.5653221   0.0000000), wk =   0.0138889
        k(   91) = (   0.1875000   0.6134347   0.0000000), wk =   0.0138889
        k(   92) = (   0.1875000   0.6615472   0.0000000), wk =   0.0138889
        k(   93) = (   0.1875000  -0.4450408   0.0000000), wk =   0.0138889
        k(   94) = (   0.1875000  -0.3969283   0.0000000), wk =   0.0138889
        k(   95) = (   0.1875000  -0.3488158   0.0000000), wk =   0.0138889
        k(   96) = (   0.1875000  -0.3007033   0.0000000), wk =   0.0138889
        k(   97) = (   0.1875000  -0.2525907   0.0000000), wk =   0.0138889
        k(   98) = (   0.1875000  -0.2044782   0.0000000), wk =   0.0138889
        k(   99) = (   0.1875000  -0.1563657   0.0000000), wk =   0.0138889
        k(  100) = (   0.1875000  -0.1082532   0.0000000), wk =   0.0069444
        k(  101) = (   0.2291667   0.3969283   0.0000000), wk =   0.0069444
        k(  102) = (   0.2291667   0.4450408   0.0000000), wk =   0.0138889
        k(  103) = (   0.2291667   0.4931534   0.0000000), wk =   0.0138889
        k(  104) = (   0.2291667   0.5412659   0.0000000), wk =   0.0138889
        k(  105) = (   0.2291667   0.5893784   0.0000000), wk =   0.0138889
        k(  106) = (   0.2291667   0.6374909   0.0000000), wk =   0.0138889
        k(  107) = (   0.2291667   0.6856034   0.0000000), wk =   0.0138889
        k(  108) = (   0.2291667  -0.4209846   0.0000000), wk =   0.0138889
        k(  109) = (   0.2291667  -0.3728720   0.0000000), wk =   0.0138889
        k(  110) = (   0.2291667  -0.3247595   0.0000000), wk =   0.0138889
        k(  111) = (   0.2291667  -0.2766470   0.0000000), wk =   0.0138889
        k(  112) = (   0.2291667  -0.2285345   0.0000000), wk =   0.0138889
        k(  113) = (   0.2291667  -0.1804220   0.0000000), wk =   0.0138889
        k(  114) = (   0.2291667  -0.1323094   0.0000000), wk =   0.0069444
        k(  115) = (   0.2708333   0.4690971   0.0000000), wk =   0.0069444
        k(  116) = (   0.2708333   0.5172096   0.0000000), wk =   0.0138889
        k(  117) = (   0.2708333   0.5653221   0.0000000), wk =   0.0138889
        k(  118) = (   0.2708333   0.6134347   0.0000000), wk =   0.0138889
        k(  119) = (   0.2708333   0.6615472   0.0000000), wk =   0.0138889
        k(  120) = (   0.2708333   0.7096597   0.0000000), wk =   0.0138889
        k(  121) = (   0.2708333  -0.3969283   0.0000000), wk =   0.0138889
        k(  122) = (   0.2708333  -0.3488158   0.0000000), wk =   0.0138889
        k(  123) = (   0.2708333  -0.3007033   0.0000000), wk =   0.0138889
        k(  124) = (   0.2708333  -0.2525907   0.0000000), wk =   0.0138889
        k(  125) = (   0.2708333  -0.2044782   0.0000000), wk =   0.0138889
        k(  126) = (   0.2708333  -0.1563657   0.0000000), wk =   0.0069444
        k(  127) = (   0.3125000   0.5412659   0.0000000), wk =   0.0069444
        k(  128) = (   0.3125000   0.5893784   0.0000000), wk =   0.0138889
        k(  129) = (   0.3125000   0.6374909   0.0000000), wk =   0.0138889
        k(  130) = (   0.3125000   0.6856034   0.0000000), wk =   0.0138889
        k(  131) = (   0.3125000   0.7337160   0.0000000), wk =   0.0138889
        k(  132) = (   0.3125000  -0.3728720   0.0000000), wk =   0.0138889
        k(  133) = (   0.3125000  -0.3247595   0.0000000), wk =   0.0138889
        k(  134) = (   0.3125000  -0.2766470   0.0000000), wk =   0.0138889
        k(  135) = (   0.3125000  -0.2285345   0.0000000), wk =   0.0138889
        k(  136) = (   0.3125000  -0.1804220   0.0000000), wk =   0.0069444
        k(  137) = (   0.3541667   0.6134347   0.0000000), wk =   0.0069444
        k(  138) = (   0.3541667   0.6615472   0.0000000), wk =   0.0138889
        k(  139) = (   0.3541667   0.7096597   0.0000000), wk =   0.0138889
        k(  140) = (   0.3541667   0.7577722   0.0000000), wk =   0.0138889
        k(  141) = (   0.3541667  -0.3488158   0.0000000), wk =   0.0138889
        k(  142) = (   0.3541667  -0.3007033   0.0000000), wk =   0.0138889
        k(  143) = (   0.3541667  -0.2525907   0.0000000), wk =   0.0138889
        k(  144) = (   0.3541667  -0.2044782   0.0000000), wk =   0.0069444
        k(  145) = (   0.3958333   0.6856034   0.0000000), wk =   0.0069444
        k(  146) = (   0.3958333   0.7337160   0.0000000), wk =   0.0138889
        k(  147) = (   0.3958333   0.7818285   0.0000000), wk =   0.0138889
        k(  148) = (   0.3958333  -0.3247595   0.0000000), wk =   0.0138889
        k(  149) = (   0.3958333  -0.2766470   0.0000000), wk =   0.0138889
        k(  150) = (   0.3958333  -0.2285345   0.0000000), wk =   0.0069444
        k(  151) = (   0.4375000   0.7577722   0.0000000), wk =   0.0069444
        k(  152) = (   0.4375000   0.8058848   0.0000000), wk =   0.0138889
        k(  153) = (   0.4375000  -0.3007033   0.0000000), wk =   0.0138889
        k(  154) = (   0.4375000  -0.2525907   0.0000000), wk =   0.0069444
        k(  155) = (   0.4791667   0.8299410   0.0000000), wk =   0.0069444
        k(  156) = (   0.4791667  -0.2766470   0.0000000), wk =   0.0069444

                       cryst. coord.
        k(    1) = (   0.0208333   0.0208333   0.0000000), wk =   0.0069444
        k(    2) = (   0.0208333   0.0625000   0.0000000), wk =   0.0138889
        k(    3) = (   0.0208333   0.1041667   0.0000000), wk =   0.0138889
        k(    4) = (   0.0208333   0.1458333   0.0000000), wk =   0.0138889
        k(    5) = (   0.0208333   0.1875000   0.0000000), wk =   0.0138889
        k(    6) = (   0.0208333   0.2291667   0.0000000), wk =   0.0138889
        k(    7) = (   0.0208333   0.2708333   0.0000000), wk =   0.0138889
        k(    8) = (   0.0208333   0.3125000   0.0000000), wk =   0.0138889
        k(    9) = (   0.0208333   0.3541667   0.0000000), wk =   0.0138889
        k(   10) = (   0.0208333   0.3958333   0.0000000), wk =   0.0138889
        k(   11) = (   0.0208333   0.4375000   0.0000000), wk =   0.0138889
        k(   12) = (   0.0208333   0.4791667   0.0000000), wk =   0.0138889
        k(   13) = (   0.0208333  -0.4791667   0.0000000), wk =   0.0138889
        k(   14) = (   0.0208333  -0.4375000   0.0000000), wk =   0.0138889
        k(   15) = (   0.0208333  -0.3958333   0.0000000), wk =   0.0138889
        k(   16) = (   0.0208333  -0.3541667   0.0000000), wk =   0.0138889
        k(   17) = (   0.0208333  -0.3125000   0.0000000), wk =   0.0138889
        k(   18) = (   0.0208333  -0.2708333   0.0000000), wk =   0.0138889
        k(   19) = (   0.0208333  -0.2291667   0.0000000), wk =   0.0138889
        k(   20) = (   0.0208333  -0.1875000   0.0000000), wk =   0.0138889
        k(   21) = (   0.0208333  -0.1458333   0.0000000), wk =   0.0138889
        k(   22) = (   0.0208333  -0.1041667   0.0000000), wk =   0.0138889
        k(   23) = (   0.0208333  -0.0625000   0.0000000), wk =   0.0138889
        k(   24) = (   0.0208333  -0.0208333   0.0000000), wk =   0.0069444
        k(   25) = (   0.0625000   0.0625000   0.0000000), wk =   0.0069444
        k(   26) = (   0.0625000   0.1041667   0.0000000), wk =   0.0138889
        k(   27) = (   0.0625000   0.1458333   0.0000000), wk =   0.0138889
        k(   28) = (   0.0625000   0.1875000   0.0000000), wk =   0.0138889
        k(   29) = (   0.0625000   0.2291667   0.0000000), wk =   0.0138889
        k(   30) = (   0.0625000   0.2708333   0.0000000), wk =   0.0138889
        k(   31) = (   0.0625000   0.3125000   0.0000000), wk =   0.0138889
        k(   32) = (   0.0625000   0.3541667   0.0000000), wk =   0.0138889
        k(   33) = (   0.0625000   0.3958333   0.0000000), wk =   0.0138889
        k(   34) = (   0.0625000   0.4375000   0.0000000), wk =   0.0138889
        k(   35) = (   0.0625000   0.4791667   0.0000000), wk =   0.0138889
        k(   36) = (   0.0625000  -0.4791667   0.0000000), wk =   0.0138889
        k(   37) = (   0.0625000  -0.4375000   0.0000000), wk =   0.0138889
        k(   38) = (   0.0625000  -0.3958333   0.0000000), wk =   0.0138889
        k(   39) = (   0.0625000  -0.3541667   0.0000000), wk =   0.0138889
        k(   40) = (   0.0625000  -0.3125000   0.0000000), wk =   0.0138889
        k(   41) = (   0.0625000  -0.2708333   0.0000000), wk =   0.0138889
        k(   42) = (   0.0625000  -0.2291667   0.0000000), wk =   0.0138889
        k(   43) = (   0.0625000  -0.1875000   0.0000000), wk =   0.0138889
        k(   44) = (   0.0625000  -0.1458333   0.0000000), wk =   0.0138889
        k(   45) = (   0.0625000  -0.1041667   0.0000000), wk =   0.0138889
        k(   46) = (   0.0625000  -0.0625000   0.0000000), wk =   0.0069444
        k(   47) = (   0.1041667   0.1041667   0.0000000), wk =   0.0069444
        k(   48) = (   0.1041667   0.1458333   0.0000000), wk =   0.0138889
        k(   49) = (   0.1041667   0.1875000   0.0000000), wk =   0.0138889
        k(   50) = (   0.1041667   0.2291667   0.0000000), wk =   0.0138889
        k(   51) = (   0.1041667   0.2708333   0.0000000), wk =   0.0138889
        k(   52) = (   0.1041667   0.3125000   0.0000000), wk =   0.0138889
        k(   53) = (   0.1041667   0.3541667   0.0000000), wk =   0.0138889
        k(   54) = (   0.1041667   0.3958333   0.0000000), wk =   0.0138889
        k(   55) = (   0.1041667   0.4375000   0.0000000), wk =   0.0138889
        k(   56) = (   0.1041667   0.4791667   0.0000000), wk =   0.0138889
        k(   57) = (   0.1041667  -0.4791667   0.0000000), wk =   0.0138889
        k(   58) = (   0.1041667  -0.4375000   0.0000000), wk =   0.0138889
        k(   59) = (   0.1041667  -0.3958333   0.0000000), wk =   0.0138889
        k(   60) = (   0.1041667  -0.3541667   0.0000000), wk =   0.0138889
        k(   61) = (   0.1041667  -0.3125000   0.0000000), wk =   0.0138889
        k(   62) = (   0.1041667  -0.2708333   0.0000000), wk =   0.0138889
        k(   63) = (   0.1041667  -0.2291667   0.0000000), wk =   0.0138889
        k(   64) = (   0.1041667  -0.1875000   0.0000000), wk =   0.0138889
        k(   65) = (   0.1041667  -0.1458333   0.0000000), wk =   0.0138889
        k(   66) = (   0.1041667  -0.1041667   0.0000000), wk =   0.0069444
        k(   67) = (   0.1458333   0.1458333   0.0000000), wk =   0.0069444
        k(   68) = (   0.1458333   0.1875000   0.0000000), wk =   0.0138889
        k(   69) = (   0.1458333   0.2291667   0.0000000), wk =   0.0138889
        k(   70) = (   0.1458333   0.2708333   0.0000000), wk =   0.0138889
        k(   71) = (   0.1458333   0.3125000   0.0000000), wk =   0.0138889
        k(   72) = (   0.1458333   0.3541667   0.0000000), wk =   0.0138889
        k(   73) = (   0.1458333   0.3958333   0.0000000), wk =   0.0138889
        k(   74) = (   0.1458333   0.4375000   0.0000000), wk =   0.0138889
        k(   75) = (   0.1458333   0.4791667   0.0000000), wk =   0.0138889
        k(   76) = (   0.1458333  -0.4791667   0.0000000), wk =   0.0138889
        k(   77) = (   0.1458333  -0.4375000   0.0000000), wk =   0.0138889
        k(   78) = (   0.1458333  -0.3958333   0.0000000), wk =   0.0138889
        k(   79) = (   0.1458333  -0.3541667   0.0000000), wk =   0.0138889
        k(   80) = (   0.1458333  -0.3125000   0.0000000), wk =   0.0138889
        k(   81) = (   0.1458333  -0.2708333   0.0000000), wk =   0.0138889
        k(   82) = (   0.1458333  -0.2291667   0.0000000), wk =   0.0138889
        k(   83) = (   0.1458333  -0.1875000   0.0000000), wk =   0.0138889
        k(   84) = (   0.1458333  -0.1458333   0.0000000), wk =   0.0069444
        k(   85) = (   0.1875000   0.1875000   0.0000000), wk =   0.0069444
        k(   86) = (   0.1875000   0.2291667   0.0000000), wk =   0.0138889
        k(   87) = (   0.1875000   0.2708333   0.0000000), wk =   0.0138889
        k(   88) = (   0.1875000   0.3125000   0.0000000), wk =   0.0138889
        k(   89) = (   0.1875000   0.3541667   0.0000000), wk =   0.0138889
        k(   90) = (   0.1875000   0.3958333   0.0000000), wk =   0.0138889
        k(   91) = (   0.1875000   0.4375000   0.0000000), wk =   0.0138889
        k(   92) = (   0.1875000   0.4791667   0.0000000), wk =   0.0138889
        k(   93) = (   0.1875000  -0.4791667   0.0000000), wk =   0.0138889
        k(   94) = (   0.1875000  -0.4375000   0.0000000), wk =   0.0138889
        k(   95) = (   0.1875000  -0.3958333   0.0000000), wk =   0.0138889
        k(   96) = (   0.1875000  -0.3541667   0.0000000), wk =   0.0138889
        k(   97) = (   0.1875000  -0.3125000   0.0000000), wk =   0.0138889
        k(   98) = (   0.1875000  -0.2708333   0.0000000), wk =   0.0138889
        k(   99) = (   0.1875000  -0.2291667   0.0000000), wk =   0.0138889
        k(  100) = (   0.1875000  -0.1875000   0.0000000), wk =   0.0069444
        k(  101) = (   0.2291667   0.2291667   0.0000000), wk =   0.0069444
        k(  102) = (   0.2291667   0.2708333   0.0000000), wk =   0.0138889
        k(  103) = (   0.2291667   0.3125000   0.0000000), wk =   0.0138889
        k(  104) = (   0.2291667   0.3541667   0.0000000), wk =   0.0138889
        k(  105) = (   0.2291667   0.3958333   0.0000000), wk =   0.0138889
        k(  106) = (   0.2291667   0.4375000   0.0000000), wk =   0.0138889
        k(  107) = (   0.2291667   0.4791667   0.0000000), wk =   0.0138889
        k(  108) = (   0.2291667  -0.4791667   0.0000000), wk =   0.0138889
        k(  109) = (   0.2291667  -0.4375000   0.0000000), wk =   0.0138889
        k(  110) = (   0.2291667  -0.3958333   0.0000000), wk =   0.0138889
        k(  111) = (   0.2291667  -0.3541667   0.0000000), wk =   0.0138889
        k(  112) = (   0.2291667  -0.3125000   0.0000000), wk =   0.0138889
        k(  113) = (   0.2291667  -0.2708333   0.0000000), wk =   0.0138889
        k(  114) = (   0.2291667  -0.2291667   0.0000000), wk =   0.0069444
        k(  115) = (   0.2708333   0.2708333   0.0000000), wk =   0.0069444
        k(  116) = (   0.2708333   0.3125000   0.0000000), wk =   0.0138889
        k(  117) = (   0.2708333   0.3541667   0.0000000), wk =   0.0138889
        k(  118) = (   0.2708333   0.3958333   0.0000000), wk =   0.0138889
        k(  119) = (   0.2708333   0.4375000   0.0000000), wk =   0.0138889
        k(  120) = (   0.2708333   0.4791667   0.0000000), wk =   0.0138889
        k(  121) = (   0.2708333  -0.4791667   0.0000000), wk =   0.0138889
        k(  122) = (   0.2708333  -0.4375000   0.0000000), wk =   0.0138889
        k(  123) = (   0.2708333  -0.3958333   0.0000000), wk =   0.0138889
        k(  124) = (   0.2708333  -0.3541667   0.0000000), wk =   0.0138889
        k(  125) = (   0.2708333  -0.3125000   0.0000000), wk =   0.0138889
        k(  126) = (   0.2708333  -0.2708333   0.0000000), wk =   0.0069444
        k(  127) = (   0.3125000   0.3125000   0.0000000), wk =   0.0069444
        k(  128) = (   0.3125000   0.3541667   0.0000000), wk =   0.0138889
        k(  129) = (   0.3125000   0.3958333   0.0000000), wk =   0.0138889
        k(  130) = (   0.3125000   0.4375000   0.0000000), wk =   0.0138889
        k(  131) = (   0.3125000   0.4791667   0.0000000), wk =   0.0138889
        k(  132) = (   0.3125000  -0.4791667   0.0000000), wk =   0.0138889
        k(  133) = (   0.3125000  -0.4375000   0.0000000), wk =   0.0138889
        k(  134) = (   0.3125000  -0.3958333   0.0000000), wk =   0.0138889
        k(  135) = (   0.3125000  -0.3541667   0.0000000), wk =   0.0138889
        k(  136) = (   0.3125000  -0.3125000   0.0000000), wk =   0.0069444
        k(  137) = (   0.3541667   0.3541667   0.0000000), wk =   0.0069444
        k(  138) = (   0.3541667   0.3958333   0.0000000), wk =   0.0138889
        k(  139) = (   0.3541667   0.4375000   0.0000000), wk =   0.0138889
        k(  140) = (   0.3541667   0.4791667   0.0000000), wk =   0.0138889
        k(  141) = (   0.3541667  -0.4791667   0.0000000), wk =   0.0138889
        k(  142) = (   0.3541667  -0.4375000   0.0000000), wk =   0.0138889
        k(  143) = (   0.3541667  -0.3958333   0.0000000), wk =   0.0138889
        k(  144) = (   0.3541667  -0.3541667   0.0000000), wk =   0.0069444
        k(  145) = (   0.3958333   0.3958333   0.0000000), wk =   0.0069444
        k(  146) = (   0.3958333   0.4375000   0.0000000), wk =   0.0138889
        k(  147) = (   0.3958333   0.4791667   0.0000000), wk =   0.0138889
        k(  148) = (   0.3958333  -0.4791667   0.0000000), wk =   0.0138889
        k(  149) = (   0.3958333  -0.4375000   0.0000000), wk =   0.0138889
        k(  150) = (   0.3958333  -0.3958333   0.0000000), wk =   0.0069444
        k(  151) = (   0.4375000   0.4375000   0.0000000), wk =   0.0069444
        k(  152) = (   0.4375000   0.4791667   0.0000000), wk =   0.0138889
        k(  153) = (   0.4375000  -0.4791667   0.0000000), wk =   0.0138889
        k(  154) = (   0.4375000  -0.4375000   0.0000000), wk =   0.0069444
        k(  155) = (   0.4791667   0.4791667   0.0000000), wk =   0.0069444
        k(  156) = (   0.4791667  -0.4791667   0.0000000), wk =   0.0069444

     Dense  grid:    58197 G-vectors     FFT dimensions: (  25,  25, 216)

     Dynamical RAM for                 wfc:       1.77 MB

     Dynamical RAM for     wfc (w. buffer):      70.90 MB

     Dynamical RAM for           str. fact:       1.78 MB

     Dynamical RAM for           local pot:       0.00 MB

     Dynamical RAM for          nlocal pot:       1.99 MB

     Dynamical RAM for                qrad:       0.58 MB

     Dynamical RAM for          rho,v,vnew:       5.75 MB

     Dynamical RAM for               rhoin:       1.92 MB

     Dynamical RAM for            rho*nmix:      14.21 MB

     Dynamical RAM for           G-vectors:       3.77 MB

     Dynamical RAM for          h,s,v(r/c):       0.19 MB

     Dynamical RAM for          <psi|beta>:       0.00 MB

     Dynamical RAM for                 psi:       7.09 MB

     Dynamical RAM for                hpsi:       7.09 MB

     Dynamical RAM for      wfcinit/wfcrot:       7.11 MB

     Estimated static dynamical RAM per process >     108.72 MB

     Estimated max dynamical RAM per process >     123.09 MB

     Estimated total dynamical RAM >     492.35 MB

     Check: negative core charge=   -0.000010

     Initial potential from superposition of free atoms

     starting charge    7.99976, renormalised to    8.00000

     negative rho (up, down):  1.211E-04 0.000E+00
     Starting wfcs are   32 randomized atomic wfcs

     total cpu time spent up to now is        3.8 secs

     Self-consistent Calculation

     iteration #  1     ecut=    70.00 Ry     beta= 0.70
     Davidson diagonalization with overlap
     ethr =  1.00E-02,  avg # of iterations =  7.4

     negative rho (up, down):  3.450E-05 0.000E+00

     total cpu time spent up to now is       15.6 secs

     total energy              =     -26.45219887 Ry
     Harris-Foulkes estimate   =     -26.73967449 Ry
     estimated scf accuracy    <       0.41121568 Ry

     iteration #  2     ecut=    70.00 Ry     beta= 0.70
     Davidson diagonalization with overlap
     ethr =  5.14E-03,  avg # of iterations =  4.9

     negative rho (up, down):  1.859E-05 0.000E+00

     total cpu time spent up to now is       22.2 secs

     total energy              =     -26.54045175 Ry
     Harris-Foulkes estimate   =     -26.65427020 Ry
     estimated scf accuracy    <       0.21922356 Ry

     iteration #  3     ecut=    70.00 Ry     beta= 0.70
     Davidson diagonalization with overlap
     ethr =  2.74E-03,  avg # of iterations =  2.0

     negative rho (up, down):  2.181E-06 0.000E+00

     total cpu time spent up to now is       26.9 secs

     total energy              =     -26.58841530 Ry
     Harris-Foulkes estimate   =     -26.58957364 Ry
     estimated scf accuracy    <       0.00305052 Ry

     iteration #  4     ecut=    70.00 Ry     beta= 0.70
     Davidson diagonalization with overlap
     ethr =  3.81E-05,  avg # of iterations =  4.7

     negative rho (up, down):  2.661E-07 0.000E+00

     total cpu time spent up to now is       33.7 secs

     total energy              =     -26.58914022 Ry
     Harris-Foulkes estimate   =     -26.58916091 Ry
     estimated scf accuracy    <       0.00006233 Ry

     iteration #  5     ecut=    70.00 Ry     beta= 0.70
     Davidson diagonalization with overlap
     ethr =  7.79E-07,  avg # of iterations =  4.3

     total cpu time spent up to now is       40.5 secs

     total energy              =     -26.58915677 Ry
     Harris-Foulkes estimate   =     -26.58915893 Ry
     estimated scf accuracy    <       0.00000514 Ry

     iteration #  6     ecut=    70.00 Ry     beta= 0.70
     Davidson diagonalization with overlap
     ethr =  6.43E-08,  avg # of iterations =  3.9

     total cpu time spent up to now is       46.3 secs

     total energy              =     -26.58915729 Ry
     Harris-Foulkes estimate   =     -26.58915734 Ry
     estimated scf accuracy    <       0.00000009 Ry

     iteration #  7     ecut=    70.00 Ry     beta= 0.70
     Davidson diagonalization with overlap
     ethr =  1.19E-09,  avg # of iterations =  4.5

     total cpu time spent up to now is       53.8 secs

     total energy              =     -26.58915734 Ry
     Harris-Foulkes estimate   =     -26.58915734 Ry
     estimated scf accuracy    <       0.00000001 Ry

     iteration #  8     ecut=    70.00 Ry     beta= 0.70
     Davidson diagonalization with overlap
     ethr =  1.33E-10,  avg # of iterations =  1.9

     total cpu time spent up to now is       58.6 secs

     total energy              =     -26.58915734 Ry
     Harris-Foulkes estimate   =     -26.58915734 Ry
     estimated scf accuracy    <          2.7E-10 Ry

     iteration #  9     ecut=    70.00 Ry     beta= 0.70
     Davidson diagonalization with overlap
     ethr =  3.43E-12,  avg # of iterations =  4.5

     total cpu time spent up to now is       65.9 secs

     End of self-consistent calculation

          k = 0.0208 0.0361 0.0000 (  7275 PWs)   bands (ev):

   -21.7909  -9.6358  -5.8569  -5.8022   0.4032   1.1940   1.2310   2.2891
     2.5855   4.2669   4.8290   6.8730   7.0714   7.2046   7.5987   8.9051

     occupation numbers 
     1.0000   1.0000   1.0000   1.0000   0.0000   0.0000   0.0000   0.0000
     0.0000   0.0000   0.0000   0.0000   0.0000   0.0000   0.0000   0.0000

          k = 0.0208 0.0842 0.0000 (  7279 PWs)   bands (ev):

   -21.7067  -9.5232  -6.1946  -5.9659   0.5459   1.3287   1.3704   2.4196
     2.7257   4.3858   4.9695   6.9122   7.0136   7.5488   7.8007   8.8046

     occupation numbers 
     1.0000   1.0000   1.0000   1.0000   0.0000   0.0000   0.0000   0.0000
     0.0000   0.0000   0.0000   0.0000   0.0000   0.0000   0.0000   0.0000

          k = 0.0208 0.1323 0.0000 (  7272 PWs)   bands (ev):

   -21.5562  -9.3219  -6.7566  -6.2330   0.7978   1.5703   1.6205   2.6524
     2.9758   4.5911   5.2151   6.9221   6.9311   8.0304   8.2531   8.6834

     occupation numbers 
     1.0000   1.0000   1.0000   1.0000   0.0000   0.0000   0.0000   0.0000
     0.0000   0.0000   0.0000   0.0000   0.0000   0.0000   0.0000   0.0000

          k = 0.0208 0.1804 0.0000 (  7276 PWs)   bands (ev):

   -21.3415  -9.0341  -7.4847  -6.5673   1.1543   1.9159   1.9806   2.9815
     3.3331   4.8560   5.5513   6.8029   6.8514   8.4871   8.6763   9.0583

     occupation numbers 
     1.0000   1.0000   1.0000   1.0000   0.0000   0.0000   0.0000   0.0000
     0.0000   0.0000   0.0000   0.0000   0.0000   0.0000   0.0000   0.0000

          k = 0.0208 0.2285 0.0000 (  7268 PWs)   bands (ev):

   -21.0661  -8.6638  -8.3201  -6.9329   1.6116   2.3577   2.4502   3.3887
     3.7947   5.0865   5.9365   6.5844   6.8298   8.8921   9.0151  10.0581

     occupation numbers 
     1.0000   1.0000   1.0000   1.0000   0.0000   0.0000   0.0000   0.0000
     0.0000   0.0000   0.0000   0.0000   0.0000   0.0000   0.0000   0.0000

          k = 0.0208 0.2766 0.0000 (  7263 PWs)   bands (ev):

   -20.7357  -9.2114  -8.2170  -7.2994   2.1661   2.8622   3.0287   3.8018
     4.3555   5.0877   6.2296   6.6190   7.0231   9.3107   9.6267  11.1722

     occupation numbers 
     1.0000   1.0000   1.0000   1.0000   0.0000   0.0000   0.0000   0.0000
     0.0000   0.0000   0.0000   0.0000   0.0000   0.0000   0.0000   0.0000

          k = 0.0208 0.3248 0.0000 (  7252 PWs)   bands (ev):

   -20.3588 -10.1143  -7.7035  -7.6430   2.8114   3.1860   3.7150   4.0696
     5.0003   5.1849   6.3372   7.0665   7.5515   9.8770  10.3163  12.2554

     occupation numbers 
     1.0000   1.0000   1.0000   1.0000   0.0000   0.0000   0.0000   0.0000
     0.0000   0.0000   0.0000   0.0000   0.0000   0.0000   0.0000   0.0000

          k = 0.0208 0.3729 0.0000 (  7254 PWs)   bands (ev):

   -19.9494 -10.9889  -7.9466  -7.1393   2.7549   3.5328   4.5062   4.6316
     5.6590   5.7662   6.4797   7.7449   8.2834  10.5483  11.0588  12.8129

     occupation numbers 
     1.0000   1.0000   1.0000   1.0000   0.0000   0.0000   0.0000   0.0000
     0.0000   0.0000   0.0000   0.0000   0.0000   0.0000   0.0000   0.0000

          k = 0.0208 0.4210 0.0000 (  7268 PWs)   bands (ev):

   -19.5300 -11.7934  -8.1978  -6.5511   1.9849   4.2868   5.3889   5.4727
     6.1101   6.5836   7.0064   8.5594   9.1414  11.2655  11.6561  12.7152

     occupation numbers 
     1.0000   1.0000   1.0000   1.0000   0.0000   0.0000   0.0000   0.0000
     0.0000   0.0000   0.0000   0.0000   0.0000   0.0000   0.0000   0.0000

          k = 0.0208 0.4691 0.0000 (  7275 PWs)   bands (ev):

   -19.1379 -12.4773  -8.3880  -5.9866   1.2155   4.9398   6.2498   6.4519
     6.6214   7.5332   7.9077   9.4628  10.0702  11.1538  11.6952  12.4085

     occupation numbers 
     1.0000   1.0000   1.0000   1.0000   0.0000   0.0000   0.0000   0.0000
     0.0000   0.0000   0.0000   0.0000   0.0000   0.0000   0.0000   0.0000

          k = 0.0208 0.5172 0.0000 (  7269 PWs)   bands (ev):

   -18.8303 -12.9743  -8.5115  -5.5281   0.6055   5.2912   7.0371   7.5352
     7.6392   8.5732   8.9587   9.8940  10.2691  10.9031  10.9119  11.2678

     occupation numbers 
     1.0000   1.0000   1.0000   1.0000   0.0000   0.0000   0.0000   0.0000
     0.0000   0.0000   0.0000   0.0000   0.0000   0.0000   0.0000   0.0000

          k = 0.0208 0.5653 0.0000 (  7272 PWs)   bands (ev):

   -18.6787 -13.2081  -8.5650  -5.2943   0.3027   5.3945   7.9688   8.6478
     8.6923   8.9097   9.3076   9.5222   9.7935  10.1975  10.4572  10.8505

     occupation numbers 
     1.0000   1.0000   1.0000   1.0000   0.0000   0.0000   0.0000   0.0000
     0.0000   0.0000   0.0000   0.0000   0.0000   0.0000   0.0000   0.0000

          k = 0.0208-0.5413 0.0000 (  7270 PWs)   bands (ev):

   -18.7308 -13.1285  -8.5471  -5.3754   0.4071   5.3635   7.5047   8.1030
     8.2266   9.0926   9.2138   9.6518  10.0364  10.2097  10.8107  11.3985

     occupation numbers 
     1.0000   1.0000   1.0000   1.0000   0.0000   0.0000   0.0000   0.0000
     0.0000   0.0000   0.0000   0.0000   0.0000   0.0000   0.0000   0.0000

          k = 0.0208-0.4932 0.0000 (  7275 PWs)   bands (ev):

   -18.9691 -12.7540  -8.4583  -5.7372   0.8813   5.1571   6.6217   6.9822
     7.0910   8.0451   8.4236   9.9190  10.3192  10.8658  11.3727  11.6593

     occupation numbers 
     1.0000   1.0000   1.0000   1.0000   0.0000   0.0000   0.0000   0.0000
     0.0000   0.0000   0.0000   0.0000   0.0000   0.0000   0.0000   0.0000

          k = 0.0208-0.4450 0.0000 (  7264 PWs)   bands (ev):

   -19.3274 -12.1541  -8.3009  -6.2617   1.5894   4.6403   5.8413   5.9477
     6.3064   7.0446   7.4290   9.0034   9.6049  11.5570  11.5798  12.7815

     occupation numbers 
     1.0000   1.0000   1.0000   1.0000   0.0000   0.0000   0.0000   0.0000
     0.0000   0.0000   0.0000   0.0000   0.0000   0.0000   0.0000   0.0000

          k = 0.0208-0.3969 0.0000 (  7262 PWs)   bands (ev):

   -19.7390 -11.4028  -8.0794  -6.8459   2.3824   3.9108   4.9383   5.0311
     5.9192   6.1551   6.6777   8.1382   8.6990  10.9078  11.4140  12.8135

     occupation numbers 
     1.0000   1.0000   1.0000   1.0000   0.0000   0.0000   0.0000   0.0000
     0.0000   0.0000   0.0000   0.0000   0.0000   0.0000   0.0000   0.0000

          k = 0.0208-0.3488 0.0000 (  7257 PWs)   bands (ev):

   -20.1570 -10.5577  -7.8007  -7.4264   3.0539   3.1643   4.0979   4.2956
     5.3383   5.4321   6.3850   7.3850   7.8989  10.2022  10.6845  12.6297

     occupation numbers 
     1.0000   1.0000   1.0000   1.0000   0.0000   0.0000   0.0000   0.0000
     0.0000   0.0000   0.0000   0.0000   0.0000   0.0000   0.0000   0.0000

          k = 0.0208-0.3007 0.0000 (  7267 PWs)   bands (ev):

   -20.5524  -9.6640  -7.9678  -7.4753   2.4780   3.0878   3.3584   3.9471
     4.6693   5.0730   6.2965   6.8031   7.2527   9.5783   9.9625  11.7377

     occupation numbers 
     1.0000   1.0000   1.0000   1.0000   0.0000   0.0000   0.0000   0.0000
     0.0000   0.0000   0.0000   0.0000   0.0000   0.0000   0.0000   0.0000

          k = 0.0208-0.2526 0.0000 (  7262 PWs)   bands (ev):

   -20.9073  -8.7617  -8.4494  -7.1177   1.8770   2.6071   2.7259   3.6043
     4.0632   5.1203   6.1084   6.5447   6.8845   9.0798   9.3106  10.6060

     occupation numbers 
     1.0000   1.0000   1.0000   1.0000   0.0000   0.0000   0.0000   0.0000
     0.0000   0.0000   0.0000   0.0000   0.0000   0.0000   0.0000   0.0000

          k = 0.0208-0.2045 0.0000 (  7267 PWs)   bands (ev):

   -21.2111  -8.8589  -7.8924  -6.7483   1.3705   2.1257   2.2018   3.1775
     3.5511   4.9870   5.7430   6.6906   6.8272   8.7406   8.7554   9.5393

     occupation numbers 
     1.0000   1.0000   1.0000   1.0000   0.0000   0.0000   0.0000   0.0000
     0.0000   0.0000   0.0000   0.0000   0.0000   0.0000   0.0000   0.0000

          k = 0.0208-0.1564 0.0000 (  7273 PWs)   bands (ev):

   -21.4567  -9.1886  -7.1037  -6.3941   0.9632   1.7303   1.7868   2.8056
     3.1412   4.7193   5.3733   6.8836   6.8885   8.2530   8.6242   8.6558

     occupation numbers 
     1.0000   1.0000   1.0000   1.0000   0.0000   0.0000   0.0000   0.0000
     0.0000   0.0000   0.0000   0.0000   0.0000   0.0000   0.0000   0.0000

          k = 0.0208-0.1083 0.0000 (  7285 PWs)   bands (ev):

   -21.6396  -9.4335  -6.4511  -6.0887   0.6585   1.4363   1.4816   2.5235
     2.8372   4.4786   5.0799   6.9268   6.9739   7.7933   7.9783   8.7397

     occupation numbers 
     1.0000   1.0000   1.0000   1.0000   0.0000   0.0000   0.0000   0.0000
     0.0000   0.0000   0.0000   0.0000   0.0000   0.0000   0.0000   0.0000

          k = 0.0208-0.0601 0.0000 (  7285 PWs)   bands (ev):

   -21.7572  -9.5907  -5.9944  -5.8691   0.4606   1.2479   1.2868   2.3414
     2.6417   4.3148   4.8856   6.8913   7.0469   7.3457   7.6789   8.8627

     occupation numbers 
     1.0000   1.0000   1.0000   1.0000   0.0000   0.0000   0.0000   0.0000
     0.0000   0.0000   0.0000   0.0000   0.0000   0.0000   0.0000   0.0000

          k = 0.0208-0.0120 0.0000 (  7285 PWs)   bands (ev):

   -21.8079  -9.6583  -5.7867  -5.7682   0.3744   1.1670   1.2031   2.2629
     2.5574   4.2428   4.8005   6.8627   7.0854   7.1316   7.5585   8.9271

     occupation numbers 
     1.0000   1.0000   1.0000   1.0000   0.0000   0.0000   0.0000   0.0000
     0.0000   0.0000   0.0000   0.0000   0.0000   0.0000   0.0000   0.0000

          k = 0.0625 0.1083 0.0000 (  7271 PWs)   bands (ev):

   -21.5895  -9.3664  -6.6189  -6.1959   0.7427   1.5167   1.5650   2.6010
     2.9207   4.5467   5.1637   6.9275   7.0145   7.7940   8.2072   8.7030

     occupation numbers 
     1.0000   1.0000   1.0000   1.0000   0.0000   0.0000   0.0000   0.0000
     0.0000   0.0000   0.0000   0.0000   0.0000   0.0000   0.0000   0.0000

          k = 0.0625 0.1564 0.0000 (  7282 PWs)   bands (ev):

   -21.4071  -9.1222  -7.2277  -6.5208   1.0468   1.8101   1.8702   2.8815
     3.2249   4.7804   5.4613   6.8553   7.0088   8.1473   8.6597   8.8242

     occupation numbers 
     1.0000   1.0000   1.0000   1.0000   0.0000   0.0000   0.0000   0.0000
     0.0000   0.0000   0.0000   0.0000   0.0000   0.0000   0.0000   0.0000

          k = 0.0625 0.2045 0.0000 (  7265 PWs)   bands (ev):

   -21.1624  -8.7934  -7.9746  -6.8946   1.4546   2.2039   2.2852   3.2498
     3.6357   5.0294   5.8452   6.6576   6.9919   8.6428   8.7979   9.5810

     occupation numbers 
     1.0000   1.0000   1.0000   1.0000   0.0000   0.0000   0.0000   0.0000
     0.0000   0.0000   0.0000   0.0000   0.0000   0.0000   0.0000   0.0000

          k = 0.0625 0.2526 0.0000 (  7264 PWs)   bands (ev):

   -20.8598  -8.8097  -8.3852  -7.2799   1.9625   2.6805   2.8097   3.6662
     4.1500   5.1264   6.2563   6.5604   7.0383   9.1407   9.2447  10.4438

     occupation numbers 
     1.0000   1.0000   1.0000   1.0000   0.0000   0.0000   0.0000   0.0000
     0.0000   0.0000   0.0000   0.0000   0.0000   0.0000   0.0000   0.0000

          k = 0.0625 0.3007 0.0000 (  7264 PWs)   bands (ev):

   -20.5063  -9.6857  -7.9052  -7.6492   2.5664   3.1370   3.4428   3.9848
     4.7612   5.0971   6.5151   6.8614   7.3511   9.6430   9.9250  11.3553

     occupation numbers 
     1.0000   1.0000   1.0000   1.0000   0.0000   0.0000   0.0000   0.0000
     0.0000   0.0000   0.0000   0.0000   0.0000   0.0000   0.0000   0.0000

          k = 0.0625 0.3488 0.0000 (  7267 PWs)   bands (ev):

   -20.1128 -10.5596  -7.9827  -7.3659   3.0393   3.2582   4.1833   4.3617
     5.4470   5.4970   6.6132   7.4535   7.9779  10.2611  10.6619  12.1977

     occupation numbers 
     1.0000   1.0000   1.0000   1.0000   0.0000   0.0000   0.0000   0.0000
     0.0000   0.0000   0.0000   0.0000   0.0000   0.0000   0.0000   0.0000

          k = 0.0625 0.3969 0.0000 (  7274 PWs)   bands (ev):

   -19.6970 -11.3898  -8.2666  -6.7878   2.3628   4.0176   5.0269   5.1080
     6.0915   6.2275   6.8371   8.2053   8.7735  10.9463  11.3823  12.6976

     occupation numbers 
     1.0000   1.0000   1.0000   1.0000   0.0000   0.0000   0.0000   0.0000
     0.0000   0.0000   0.0000   0.0000   0.0000   0.0000   0.0000   0.0000

          k = 0.0625 0.4450 0.0000 (  7272 PWs)   bands (ev):

   -19.2880 -12.1300  -8.4915  -6.2065   1.5813   4.7821   5.9478   6.0247
     6.4928   7.1156   7.5242   9.0615   9.6755  11.5451  11.5576  12.8600

     occupation numbers 
     1.0000   1.0000   1.0000   1.0000   0.0000   0.0000   0.0000   0.0000
     0.0000   0.0000   0.0000   0.0000   0.0000   0.0000   0.0000   0.0000

          k = 0.0625 0.4932 0.0000 (  7270 PWs)   bands (ev):

   -18.9324 -12.7217  -8.6508  -5.6849   0.8844   5.3711   6.7575   7.0557
     7.1863   8.1093   8.5055   9.9510  10.3678  10.9471  11.3837  11.7394

     occupation numbers 
     1.0000   1.0000   1.0000   1.0000   0.0000   0.0000   0.0000   0.0000
     0.0000   0.0000   0.0000   0.0000   0.0000   0.0000   0.0000   0.0000

          k = 0.0625 0.5413 0.0000 (  7273 PWs)   bands (ev):

   -18.6962 -13.0913  -8.7406  -5.3255   0.4174   5.6259   7.5985   8.1650
     8.3090   9.1366   9.2858   9.7368  10.0853  10.2916  10.8392  11.4654

     occupation numbers 
     1.0000   1.0000   1.0000   1.0000   0.0000   0.0000   0.0000   0.0000
     0.0000   0.0000   0.0000   0.0000   0.0000   0.0000   0.0000   0.0000

          k = 0.0625 0.5894 0.0000 (  7254 PWs)   bands (ev):

   -18.6446 -13.1698  -8.7586  -5.2449   0.3146   5.6644   8.0443   8.6899
     8.7767   8.9968   9.3584   9.6045   9.8553  10.2769  10.5123  10.9292

     occupation numbers 
     1.0000   1.0000   1.0000   1.0000   0.0000   0.0000   0.0000   0.0000
     0.0000   0.0000   0.0000   0.0000   0.0000   0.0000   0.0000   0.0000

          k = 0.0625-0.5172 0.0000 (  7270 PWs)   bands (ev):

   -18.7948 -12.9391  -8.7046  -5.4771   0.6129   5.5359   7.1505   7.6048
     7.7248   8.6304   9.0363   9.9616  10.2738  10.9826  10.9830  11.3462

     occupation numbers 
     1.0000   1.0000   1.0000   1.0000   0.0000   0.0000   0.0000   0.0000
     0.0000   0.0000   0.0000   0.0000   0.0000   0.0000   0.0000   0.0000

          k = 0.0625-0.4691 0.0000 (  7270 PWs)   bands (ev):

   -19.0998 -12.4487  -8.5797  -5.9328   1.2133   5.1151   6.3847   6.5276
     6.7541   7.6016   7.9941   9.5116  10.1349  11.1932  11.6430  12.4854

     occupation numbers 
     1.0000   1.0000   1.0000   1.0000   0.0000   0.0000   0.0000   0.0000
     0.0000   0.0000   0.0000   0.0000   0.0000   0.0000   0.0000   0.0000

          k = 0.0625-0.4210 0.0000 (  7268 PWs)   bands (ev):

   -19.4892 -11.7744  -8.3869  -6.4945   1.9707   4.4067   5.4823   5.5501
     6.3099   6.6560   7.1227   8.6231   9.2143  11.2815  11.6127  12.7509

     occupation numbers 
     1.0000   1.0000   1.0000   1.0000   0.0000   0.0000   0.0000   0.0000
     0.0000   0.0000   0.0000   0.0000   0.0000   0.0000   0.0000   0.0000

          k = 0.0625-0.3729 0.0000 (  7269 PWs)   bands (ev):

   -19.9062 -10.9829  -8.1315  -7.0800   2.7331   3.6317   4.5928   4.7058
     5.7913   5.8369   6.6850   7.8136   8.3596  10.5998  11.0358  12.5163

     occupation numbers 
     1.0000   1.0000   1.0000   1.0000   0.0000   0.0000   0.0000   0.0000
     0.0000   0.0000   0.0000   0.0000   0.0000   0.0000   0.0000   0.0000

          k = 0.0625-0.3248 0.0000 (  7269 PWs)   bands (ev):

   -20.3136 -10.1255  -7.8214  -7.6420   2.9022   3.1997   3.7998   4.1169
     5.0978   5.2354   6.5688   7.1321   7.6365   9.9401  10.2883  11.7968

     occupation numbers 
     1.0000   1.0000   1.0000   1.0000   0.0000   0.0000   0.0000   0.0000
     0.0000   0.0000   0.0000   0.0000   0.0000   0.0000   0.0000   0.0000

          k = 0.0625-0.2766 0.0000 (  7268 PWs)   bands (ev):

   -20.6888  -9.2453  -8.1536  -7.4679   2.2528   2.9288   3.1127   3.8518
     4.4442   5.0907   6.4170   6.6615   7.1474   9.3749   9.5762  10.8987

     occupation numbers 
     1.0000   1.0000   1.0000   1.0000   0.0000   0.0000   0.0000   0.0000
     0.0000   0.0000   0.0000   0.0000   0.0000   0.0000   0.0000   0.0000

          k = 0.0625-0.2285 0.0000 (  7266 PWs)   bands (ev):

   -21.0180  -8.5989  -8.3842  -7.0877   1.6963   2.4342   2.5338   3.4573
     3.8802   5.1112   6.0552   6.5702   6.9980   8.9326   8.9462  10.0018

     occupation numbers 
     1.0000   1.0000   1.0000   1.0000   0.0000   0.0000   0.0000   0.0000
     0.0000   0.0000   0.0000   0.0000   0.0000   0.0000   0.0000   0.0000

          k = 0.0625-0.1804 0.0000 (  7273 PWs)   bands (ev):

   -21.2923  -8.9681  -7.5870  -6.7041   1.2380   1.9950   2.0640   3.0560
     3.4171   4.9100   5.6444   6.7663   6.9992   8.3794   8.7018   9.1871

     occupation numbers 
     1.0000   1.0000   1.0000   1.0000   0.0000   0.0000   0.0000   0.0000
     0.0000   0.0000   0.0000   0.0000   0.0000   0.0000   0.0000   0.0000

          k = 0.0625-0.1323 0.0000 (  7279 PWs)   bands (ev):

   -21.5063  -9.2551  -6.9029  -6.3495   0.8816   1.6504   1.7038   2.7293
     3.0593   4.6564   5.3002   6.9083   7.0146   7.9516   8.4959   8.6652

     occupation numbers 
     1.0000   1.0000   1.0000   1.0000   0.0000   0.0000   0.0000   0.0000
     0.0000   0.0000   0.0000   0.0000   0.0000   0.0000   0.0000   0.0000

          k = 0.0625-0.0842 0.0000 (  7277 PWs)   bands (ev):

   -21.6564  -9.4559  -6.3812  -6.0660   0.6306   1.4094   1.4539   2.4976
     2.8094   4.4556   5.0531   6.9247   7.0116   7.6671   7.9686   8.7546

     occupation numbers 
     1.0000   1.0000   1.0000   1.0000   0.0000   0.0000   0.0000   0.0000
     0.0000   0.0000   0.0000   0.0000   0.0000   0.0000   0.0000   0.0000

          k = 0.0625-0.0361 0.0000 (  7269 PWs)   bands (ev):

   -21.7403  -9.5682  -6.0636  -5.9000   0.4891   1.2749   1.3147   2.3675
     2.6698   4.3386   4.9136   6.8991   7.0273   7.4297   7.7127   8.8426

     occupation numbers 
     1.0000   1.0000   1.0000   1.0000   0.0000   0.0000   0.0000   0.0000
     0.0000   0.0000   0.0000   0.0000   0.0000   0.0000   0.0000   0.0000

          k = 0.1042 0.1804 0.0000 (  7285 PWs)   bands (ev):

   -21.1947  -8.8369  -7.8314  -6.9092   1.4028   2.1521   2.2303   3.2024
     3.5831   5.0046   5.8144   6.6881   7.1492   8.3909   8.7712   9.4312

     occupation numbers 
     1.0000   1.0000   1.0000   1.0000   0.0000   0.0000   0.0000   0.0000
     0.0000   0.0000   0.0000   0.0000   0.0000   0.0000   0.0000   0.0000

          k = 0.1042 0.2285 0.0000 (  7281 PWs)   bands (ev):

   -20.9224  -8.5448  -8.4700  -7.3362   1.8623   2.5846   2.7004   3.5885
     4.0482   5.1386   6.2567   6.5606   7.2678   8.8268   9.0605  10.0735

     occupation numbers 
     1.0000   1.0000   1.0000   1.0000   0.0000   0.0000   0.0000   0.0000
     0.0000   0.0000   0.0000   0.0000   0.0000   0.0000   0.0000   0.0000

          k = 0.1042 0.2766 0.0000 (  7270 PWs)   bands (ev):

   -20.5960  -9.3354  -8.0277  -7.7540   2.4220   3.0519   3.2800   3.9386
     4.6168   5.0999   6.7219   6.7572   7.4045   9.4411   9.5042  10.7752

     occupation numbers 
     1.0000   1.0000   1.0000   1.0000   0.0000   0.0000   0.0000   0.0000
     0.0000   0.0000   0.0000   0.0000   0.0000   0.0000   0.0000   0.0000

          k = 0.1042 0.3248 0.0000 (  7267 PWs)   bands (ev):

   -20.2242 -10.1617  -8.1349  -7.5199   3.0771   3.1996   3.9682   4.2199
     5.2816   5.3441   6.9980   7.2651   7.8061  10.0643  10.1664  11.5351

     occupation numbers 
     1.0000   1.0000   1.0000   1.0000   0.0000   0.0000   0.0000   0.0000
     0.0000   0.0000   0.0000   0.0000   0.0000   0.0000   0.0000   0.0000

          k = 0.1042 0.3729 0.0000 (  7259 PWs)   bands (ev):

   -19.8210 -10.9792  -8.4636  -6.9627   2.6777   3.8182   4.7637   4.8553
     5.9788   6.0164   7.1087   7.9500   8.5071  10.6934  10.9226  12.2868

     occupation numbers 
     1.0000   1.0000   1.0000   1.0000   0.0000   0.0000   0.0000   0.0000
     0.0000   0.0000   0.0000   0.0000   0.0000   0.0000   0.0000   0.0000

          k = 0.1042 0.4210 0.0000 (  7265 PWs)   bands (ev):

   -19.4092 -11.7414  -8.7310  -6.3828   1.9336   4.6214   5.6611   5.7045
     6.6717   6.7996   7.3886   8.7464   9.3553  11.2816  11.4984  12.8404

     occupation numbers 
     1.0000   1.0000   1.0000   1.0000   0.0000   0.0000   0.0000   0.0000
     0.0000   0.0000   0.0000   0.0000   0.0000   0.0000   0.0000   0.0000

          k = 0.1042 0.4691 0.0000 (  7253 PWs)   bands (ev):

   -19.0255 -12.3941  -8.9310  -5.8274   1.2019   5.4103   6.6210   6.6772
     7.0682   7.7348   8.1702   9.5947  10.2569  11.2674  11.5125  12.6377

     occupation numbers 
     1.0000   1.0000   1.0000   1.0000   0.0000   0.0000   0.0000   0.0000
     0.0000   0.0000   0.0000   0.0000   0.0000   0.0000   0.0000   0.0000

          k = 0.1042 0.5172 0.0000 (  7255 PWs)   bands (ev):

   -18.7258 -12.8699  -9.0601  -5.3775   0.6216   5.9697   7.3930   7.7372
     7.8985   8.7338   9.1905  10.0963  10.2555  11.1247  11.1425  11.5028

     occupation numbers 
     1.0000   1.0000   1.0000   1.0000   0.0000   0.0000   0.0000   0.0000
     0.0000   0.0000   0.0000   0.0000   0.0000   0.0000   0.0000   0.0000

          k = 0.1042 0.5653 0.0000 (  7262 PWs)   bands (ev):

   -18.5787 -13.0938  -9.1158  -5.1488   0.3330   6.1622   8.1959   8.7406
     8.9478   9.1730   9.4528   9.7692   9.9799  10.4356  10.6208  11.0864

     occupation numbers 
     1.0000   1.0000   1.0000   1.0000   0.0000   0.0000   0.0000   0.0000
     0.0000   0.0000   0.0000   0.0000   0.0000   0.0000   0.0000   0.0000

          k = 0.1042 0.6134 0.0000 (  7246 PWs)   bands (ev):

   -18.6292 -13.0176  -9.0971  -5.2280   0.4325   6.1041   7.7939   8.2748
     8.4739   9.2065   9.4304   9.9077  10.1696  10.4555  10.8977  11.6022

     occupation numbers 
     1.0000   1.0000   1.0000   1.0000   0.0000   0.0000   0.0000   0.0000
     0.0000   0.0000   0.0000   0.0000   0.0000   0.0000   0.0000   0.0000

          k = 0.1042-0.4932 0.0000 (  7259 PWs)   bands (ev):

   -18.8609 -12.6589  -9.0046  -5.5826   0.8841   5.7365   7.0357   7.1992
     7.3952   8.2314   8.6697   9.9897  10.4598  11.1100  11.3791  11.8992

     occupation numbers 
     1.0000   1.0000   1.0000   1.0000   0.0000   0.0000   0.0000   0.0000
     0.0000   0.0000   0.0000   0.0000   0.0000   0.0000   0.0000   0.0000

          k = 0.1042-0.4450 0.0000 (  7259 PWs)   bands (ev):

   -19.2108 -12.0852  -8.8397  -6.0979   1.5573   5.0270   6.1409   6.1776
     6.8755   7.2555   7.7266   9.1699   9.8113  11.4711  11.5084  12.9508

     occupation numbers 
     1.0000   1.0000   1.0000   1.0000   0.0000   0.0000   0.0000   0.0000
     0.0000   0.0000   0.0000   0.0000   0.0000   0.0000   0.0000   0.0000

          k = 0.1042-0.3969 0.0000 (  7265 PWs)   bands (ev):

   -19.6143 -11.3704  -8.6054  -6.6733   2.3139   4.2148   5.2004   5.2617
     6.3721   6.3760   7.1981   8.3372   8.9176  11.0055  11.2628  12.6039

     occupation numbers 
     1.0000   1.0000   1.0000   1.0000   0.0000   0.0000   0.0000   0.0000
     0.0000   0.0000   0.0000   0.0000   0.0000   0.0000   0.0000   0.0000

          k = 0.1042-0.3488 0.0000 (  7265 PWs)   bands (ev):

   -20.0254 -10.5744  -8.3065  -7.2461   2.9929   3.4378   4.3527   4.4980
     5.6297   5.6440   7.0557   7.5905   8.1319  10.3744  10.5474  11.9203

     occupation numbers 
     1.0000   1.0000   1.0000   1.0000   0.0000   0.0000   0.0000   0.0000
     0.0000   0.0000   0.0000   0.0000   0.0000   0.0000   0.0000   0.0000

          k = 0.1042-0.3007 0.0000 (  7263 PWs)   bands (ev):

   -20.4150  -9.7468  -7.9502  -7.7812   2.7381   3.2135   3.6105   4.0554
     4.9380   5.1578   6.8963   6.9826   7.5566   9.7721   9.7944  11.1500

     occupation numbers 
     1.0000   1.0000   1.0000   1.0000   0.0000   0.0000   0.0000   0.0000
     0.0000   0.0000   0.0000   0.0000   0.0000   0.0000   0.0000   0.0000

          k = 0.1042-0.2526 0.0000 (  7276 PWs)   bands (ev):

   -20.7655  -8.9329  -8.2577  -7.5483   2.1299   2.8226   2.9766   3.7802
     4.3198   5.1244   6.4958   6.6102   7.3230   9.1155   9.2654  10.4160

     occupation numbers 
     1.0000   1.0000   1.0000   1.0000   0.0000   0.0000   0.0000   0.0000
     0.0000   0.0000   0.0000   0.0000   0.0000   0.0000   0.0000   0.0000

          k = 0.1042-0.2045 0.0000 (  7287 PWs)   bands (ev):

   -21.0658  -8.6633  -8.1761  -7.1213   1.6198   2.3585   2.4517   3.3906
     3.8024   5.0953   6.0264   6.6000   7.2132   8.5835   8.8943   9.7463

     occupation numbers 
     1.0000   1.0000   1.0000   1.0000   0.0000   0.0000   0.0000   0.0000
     0.0000   0.0000   0.0000   0.0000   0.0000   0.0000   0.0000   0.0000

          k = 0.1042-0.1564 0.0000 (  7283 PWs)   bands (ev):

   -21.3087  -8.9900  -7.5143  -6.7064   1.2116   1.9687   2.0365   3.0314
     3.3905   4.8931   5.6251   6.7818   7.0777   8.2480   8.6937   9.1246

     occupation numbers 
     1.0000   1.0000   1.0000   1.0000   0.0000   0.0000   0.0000   0.0000
     0.0000   0.0000   0.0000   0.0000   0.0000   0.0000   0.0000   0.0000

          k = 0.1042-0.1083 0.0000 (  7273 PWs)   bands (ev):

   -21.4897  -9.2329  -6.9741  -6.3606   0.9088   1.6771   1.7315   2.7548
     3.0866   4.6776   5.3244   6.9009   6.9561   8.0779   8.5317   8.6607

     occupation numbers 
     1.0000   1.0000   1.0000   1.0000   0.0000   0.0000   0.0000   0.0000
     0.0000   0.0000   0.0000   0.0000   0.0000   0.0000   0.0000   0.0000

          k = 0.1042-0.0601 0.0000 (  7267 PWs)   bands (ev):

   -21.6062  -9.3888  -6.5798  -6.1423   0.7143   1.4899   1.5372   2.5752
     2.8926   4.5241   5.1337   6.9280   6.9389   7.9971   8.0016   8.7136

     occupation numbers 
     1.0000   1.0000   1.0000   1.0000   0.0000   0.0000   0.0000   0.0000
     0.0000   0.0000   0.0000   0.0000   0.0000   0.0000   0.0000   0.0000

          k = 0.1458 0.2526 0.0000 (  7263 PWs)   bands (ev):

   -20.6261  -9.1870  -8.0688  -7.8226   2.3743   3.0169   3.2257   3.9198
     4.5683   5.1103   6.7276   6.7697   7.5751   9.1276   9.4585  10.6013

     occupation numbers 
     1.0000   1.0000   1.0000   1.0000   0.0000   0.0000   0.0000   0.0000
     0.0000   0.0000   0.0000   0.0000   0.0000   0.0000   0.0000   0.0000

          k = 0.1458 0.3007 0.0000 (  7262 PWs)   bands (ev):

   -20.2806  -9.8914  -8.2893  -7.5978   2.9866   3.2553   3.8606   4.1703
     5.1925   5.2830   7.1744   7.3212   7.8506   9.6345   9.9647  11.2141

     occupation numbers 
     1.0000   1.0000   1.0000   1.0000   0.0000   0.0000   0.0000   0.0000
     0.0000   0.0000   0.0000   0.0000   0.0000   0.0000   0.0000   0.0000

          k = 0.1458 0.3488 0.0000 (  7264 PWs)   bands (ev):

   -19.8973 -10.6308  -8.6976  -7.0698   2.8852   3.6937   4.6042   4.7109
     5.8349   5.9135   7.6540   7.7966   8.3408  10.3171  10.5319  11.9156

     occupation numbers 
     1.0000   1.0000   1.0000   1.0000   0.0000   0.0000   0.0000   0.0000
     0.0000   0.0000   0.0000   0.0000   0.0000   0.0000   0.0000   0.0000

          k = 0.1458 0.3969 0.0000 (  7261 PWs)   bands (ev):

   -19.4940 -11.3615  -9.0324  -6.5055   2.2178   4.4856   5.4552   5.4923
     6.5883   6.7052   7.7791   8.5291   9.1138  11.0293  11.0447  12.6631

     occupation numbers 
     1.0000   1.0000   1.0000   1.0000   0.0000   0.0000   0.0000   0.0000
     0.0000   0.0000   0.0000   0.0000   0.0000   0.0000   0.0000   0.0000

          k = 0.1458 0.4450 0.0000 (  7249 PWs)   bands (ev):

   -19.0995 -12.0292  -9.2895  -5.9401   1.5027   5.3363   6.4039   6.4079
     7.3979   7.4595   8.0786   9.3089   9.9947  11.2940  11.4388  13.0221

     occupation numbers 
     1.0000   1.0000   1.0000   1.0000   0.0000   0.0000   0.0000   0.0000
     0.0000   0.0000   0.0000   0.0000   0.0000   0.0000   0.0000   0.0000

          k = 0.1458 0.4932 0.0000 (  7263 PWs)   bands (ev):

   -18.7591 -12.5700  -9.4679  -5.4353   0.8680   6.1608   7.4023   7.4088
     7.7900   8.3953   8.9169   9.9874  10.5848  11.3543  11.3744  12.1374

     occupation numbers 
     1.0000   1.0000   1.0000   1.0000   0.0000   0.0000   0.0000   0.0000
     0.0000   0.0000   0.0000   0.0000   0.0000   0.0000   0.0000   0.0000

          k = 0.1458 0.5413 0.0000 (  7246 PWs)   bands (ev):

   -18.5347 -12.9094  -9.5671  -5.0891   0.4416   6.7091   8.1092   8.3823
     8.7214   9.2771   9.6501  10.1665  10.2830  10.7011  11.0197  11.8153

     occupation numbers 
     1.0000   1.0000   1.0000   1.0000   0.0000   0.0000   0.0000   0.0000
     0.0000   0.0000   0.0000   0.0000   0.0000   0.0000   0.0000   0.0000

          k = 0.1458 0.5894 0.0000 (  7260 PWs)   bands (ev):

   -18.4859 -12.9815  -9.5870  -5.0118   0.3476   6.8099   8.4260   8.7125
     9.2100   9.4444   9.6009  10.0165  10.1765  10.6733  10.7899  11.3211

     occupation numbers 
     1.0000   1.0000   1.0000   1.0000   0.0000   0.0000   0.0000   0.0000
     0.0000   0.0000   0.0000   0.0000   0.0000   0.0000   0.0000   0.0000

          k = 0.1458 0.6375 0.0000 (  7259 PWs)   bands (ev):

   -18.6282 -12.7696  -9.5274  -5.2350   0.6202   6.4904   7.7881   7.9103
     8.1719   8.8568   9.4181  10.1993  10.2981  11.3413  11.3807  11.7372

     occupation numbers 
     1.0000   1.0000   1.0000   1.0000   0.0000   0.0000   0.0000   0.0000
     0.0000   0.0000   0.0000   0.0000   0.0000   0.0000   0.0000   0.0000

          k = 0.1458-0.4691 0.0000 (  7255 PWs)   bands (ev):

   -18.9190 -12.3200  -9.3886  -5.6749   1.1677   5.7624   6.8954   6.9139
     7.5949   7.9237   8.4471   9.6771  10.4145  11.3339  11.3737  12.8611

     occupation numbers 
     1.0000   1.0000   1.0000   1.0000   0.0000   0.0000   0.0000   0.0000
     0.0000   0.0000   0.0000   0.0000   0.0000   0.0000   0.0000   0.0000

          k = 0.1458-0.4210 0.0000 (  7250 PWs)   bands (ev):

   -19.2933 -11.7069  -9.1707  -6.2198   1.8576   4.9065   5.9196   5.9346
     7.0122   7.0906   7.8729   8.9189   9.5477  11.2099  11.3077  12.9201

     occupation numbers 
     1.0000   1.0000   1.0000   1.0000   0.0000   0.0000   0.0000   0.0000
     0.0000   0.0000   0.0000   0.0000   0.0000   0.0000   0.0000   0.0000

          k = 0.1458-0.3729 0.0000 (  7259 PWs)   bands (ev):

   -19.6966 -11.0005  -8.8746  -6.7904   2.5674   4.0801   5.0165   5.0817
     6.1935   6.3043   7.7209   8.1523   8.7066  10.6830  10.8076  12.2892

     occupation numbers 
     1.0000   1.0000   1.0000   1.0000   0.0000   0.0000   0.0000   0.0000
     0.0000   0.0000   0.0000   0.0000   0.0000   0.0000   0.0000   0.0000

          k = 0.1458-0.3248 0.0000 (  7264 PWs)   bands (ev):

   -20.0928 -10.2592  -8.5021  -7.3399   3.1353   3.3287   4.2189   4.3964
     5.5242   5.5417   7.4685   7.5336   8.0463   9.9608  10.2452  11.5551

     occupation numbers 
     1.0000   1.0000   1.0000   1.0000   0.0000   0.0000   0.0000   0.0000
     0.0000   0.0000   0.0000   0.0000   0.0000   0.0000   0.0000   0.0000

          k = 0.1458-0.2766 0.0000 (  7262 PWs)   bands (ev):

   -20.4589  -9.5326  -8.0615  -7.8413   2.6682   3.1963   3.5295   4.0389
     4.8677   5.1426   6.9233   7.0499   7.7115   9.3537   9.7003  10.8959

     occupation numbers 
     1.0000   1.0000   1.0000   1.0000   0.0000   0.0000   0.0000   0.0000
     0.0000   0.0000   0.0000   0.0000   0.0000   0.0000   0.0000   0.0000

          k = 0.1458-0.2285 0.0000 (  7283 PWs)   bands (ev):

   -20.7810  -8.8572  -8.2787  -7.5783   2.1055   2.8003   2.9494   3.7643
     4.2950   5.1319   6.5025   6.6032   7.4250   8.9555   9.2439  10.3286

     occupation numbers 
     1.0000   1.0000   1.0000   1.0000   0.0000   0.0000   0.0000   0.0000
     0.0000   0.0000   0.0000   0.0000   0.0000   0.0000   0.0000   0.0000

          k = 0.1458-0.1804 0.0000 (  7283 PWs)   bands (ev):

   -21.0498  -8.6418  -8.2504  -7.1052   1.6452   2.3838   2.4790   3.4130
     3.8283   5.1015   6.0368   6.5889   7.1183   8.7269   8.9111   9.8278

     occupation numbers 
     1.0000   1.0000   1.0000   1.0000   0.0000   0.0000   0.0000   0.0000
     0.0000   0.0000   0.0000   0.0000   0.0000   0.0000   0.0000   0.0000

          k = 0.1458-0.1323 0.0000 (  7281 PWs)   bands (ev):

   -21.2598  -8.9244  -7.7185  -6.7131   1.2908   2.0474   2.1191   3.1049
     3.4706   4.9424   5.6833   6.7354   6.9003   8.5655   8.7207   9.3240

     occupation numbers 
     1.0000   1.0000   1.0000   1.0000   0.0000   0.0000   0.0000   0.0000
     0.0000   0.0000   0.0000   0.0000   0.0000   0.0000   0.0000   0.0000

          k = 0.1458-0.0842 0.0000 (  7271 PWs)   bands (ev):

   -21.4072  -9.1222  -7.2775  -6.4611   1.0451   1.8100   1.8699   2.8814
     3.2234   4.7798   5.4484   6.8486   6.8522   8.3928   8.6579   8.8077

     occupation numbers 
     1.0000   1.0000   1.0000   1.0000   0.0000   0.0000   0.0000   0.0000
     0.0000   0.0000   0.0000   0.0000   0.0000   0.0000   0.0000   0.0000

          k = 0.1875 0.3248 0.0000 (  7270 PWs)   bands (ev):

   -19.9230 -10.4799  -8.8131  -7.1058   2.9570   3.6513   4.5509   4.6648
     5.7883   5.8729   7.7456   8.0098   8.2662   9.9496  10.4762  11.7959

     occupation numbers 
     1.0000   1.0000   1.0000   1.0000   0.0000   0.0000   0.0000   0.0000
     0.0000   0.0000   0.0000   0.0000   0.0000   0.0000   0.0000   0.0000

          k = 0.1875 0.3729 0.0000 (  7264 PWs)   bands (ev):

   -19.5375 -11.0936  -9.2683  -6.5682   2.3784   4.4100   5.3500   5.3871
     6.4826   6.6510   8.4177   8.4237   8.8819  10.4883  10.9090  12.4997

     occupation numbers 
     1.0000   1.0000   1.0000   1.0000   0.0000   0.0000   0.0000   0.0000
     0.0000   0.0000   0.0000   0.0000   0.0000   0.0000   0.0000   0.0000

          k = 0.1875 0.4210 0.0000 (  7239 PWs)   bands (ev):

   -19.1470 -11.6998  -9.6273  -6.0121   1.7224   5.2510   6.2384   6.2566
     7.2900   7.5017   8.5554   9.1223   9.7396  11.0750  11.1285  12.9614

     occupation numbers 
     1.0000   1.0000   1.0000   1.0000   0.0000   0.0000   0.0000   0.0000
     0.0000   0.0000   0.0000   0.0000   0.0000   0.0000   0.0000   0.0000

          k = 0.1875 0.4691 0.0000 (  7241 PWs)   bands (ev):

   -18.7871 -12.2412  -9.8858  -5.4834   1.0931   6.1460   7.1700   7.2647
     8.1516   8.2322   8.8561   9.7177  10.5632  11.2556  11.5334  13.1448

     occupation numbers 
     1.0000   1.0000   1.0000   1.0000   0.0000   0.0000   0.0000   0.0000
     0.0000   0.0000   0.0000   0.0000   0.0000   0.0000   0.0000   0.0000

          k = 0.1875 0.5172 0.0000 (  7267 PWs)   bands (ev):

   -18.5097 -12.6448 -10.0475  -5.0589   0.5937   6.9992   8.0585   8.2902
     8.5946   8.9799   9.7135  10.1973  10.5707  11.6373  11.6959  12.0484

     occupation numbers 
     1.0000   1.0000   1.0000   1.0000   0.0000   0.0000   0.0000   0.0000
     0.0000   0.0000   0.0000   0.0000   0.0000   0.0000   0.0000   0.0000

          k = 0.1875 0.5653 0.0000 (  7248 PWs)   bands (ev):

   -18.3747 -12.8361 -10.1160  -4.8446   0.3448   7.4982   8.5219   8.7399
     9.5655   9.8242   9.8467  10.3466  10.4615  10.9895  11.0421  11.6318

     occupation numbers 
     1.0000   1.0000   1.0000   1.0000   0.0000   0.0000   0.0000   0.0000
     0.0000   0.0000   0.0000   0.0000   0.0000   0.0000   0.0000   0.0000

          k = 0.1875 0.6134 0.0000 (  7256 PWs)   bands (ev):

   -18.4210 -12.7709 -10.0932  -4.9188   0.4306   7.3224   8.3694   8.5622
     9.0517   9.3990   9.9523  10.4736  10.5159  11.0282  11.2550  12.1106

     occupation numbers 
     1.0000   1.0000   1.0000   1.0000   0.0000   0.0000   0.0000   0.0000
     0.0000   0.0000   0.0000   0.0000   0.0000   0.0000   0.0000   0.0000

          k = 0.1875 0.6615 0.0000 (  7255 PWs)   bands (ev):

   -18.6343 -12.4651  -9.9785  -5.2519   0.8198   6.5900   7.6364   7.7968
     8.4071   8.5738   9.2483   9.9511  10.7323  11.4789  11.6791  12.4508

     occupation numbers 
     1.0000   1.0000   1.0000   1.0000   0.0000   0.0000   0.0000   0.0000
     0.0000   0.0000   0.0000   0.0000   0.0000   0.0000   0.0000   0.0000

          k = 0.1875-0.4450 0.0000 (  7238 PWs)   bands (ev):

   -18.9603 -11.9829  -9.7690  -5.7404   1.3985   5.6950   6.6981   6.7488
     7.7190   7.9157   8.6447   9.4446  10.1767  11.1277  11.3839  13.2112

     occupation numbers 
     1.0000   1.0000   1.0000   1.0000   0.0000   0.0000   0.0000   0.0000
     0.0000   0.0000   0.0000   0.0000   0.0000   0.0000   0.0000   0.0000

          k = 0.1875-0.3969 0.0000 (  7258 PWs)   bands (ev):

   -19.3410 -11.4008  -9.4604  -6.2902   2.0529   4.8213   5.7900   5.7996
     6.8754   7.0710   8.4961   8.7726   9.3019  10.8127  11.0243  12.7972

     occupation numbers 
     1.0000   1.0000   1.0000   1.0000   0.0000   0.0000   0.0000   0.0000
     0.0000   0.0000   0.0000   0.0000   0.0000   0.0000   0.0000   0.0000

          k = 0.1875-0.3488 0.0000 (  7272 PWs)   bands (ev):

   -19.7326 -10.7850  -9.0517  -6.8414   2.6857   4.0194   4.9369   5.0062
     6.1179   6.2505   8.0723   8.2928   8.5092  10.1926  10.7165  12.1346

     occupation numbers 
     1.0000   1.0000   1.0000   1.0000   0.0000   0.0000   0.0000   0.0000
     0.0000   0.0000   0.0000   0.0000   0.0000   0.0000   0.0000   0.0000

          k = 0.1875-0.3007 0.0000 (  7268 PWs)   bands (ev):

   -20.1064 -10.1816  -8.5569  -7.3587   3.1626   3.3067   4.1921   4.3780
     5.5044   5.5199   7.4443   7.6601   8.0677   9.7669  10.2190  11.4879

     occupation numbers 
     1.0000   1.0000   1.0000   1.0000   0.0000   0.0000   0.0000   0.0000
     0.0000   0.0000   0.0000   0.0000   0.0000   0.0000   0.0000   0.0000

          k = 0.1875-0.2526 0.0000 (  7261 PWs)   bands (ev):

   -20.4443  -9.6095  -8.0187  -7.8212   2.6915   3.2035   3.5565   4.0440
     4.8912   5.1462   6.9426   7.0066   7.6240   9.5324   9.7242  10.9768

     occupation numbers 
     1.0000   1.0000   1.0000   1.0000   0.0000   0.0000   0.0000   0.0000
     0.0000   0.0000   0.0000   0.0000   0.0000   0.0000   0.0000   0.0000

          k = 0.1875-0.2045 0.0000 (  7276 PWs)   bands (ev):

   -20.7348  -9.0688  -8.2160  -7.5047   2.1789   2.8662   3.0310   3.8105
     4.3696   5.1099   6.4709   6.6276   7.2058   9.3088   9.3471  10.6030

     occupation numbers 
     1.0000   1.0000   1.0000   1.0000   0.0000   0.0000   0.0000   0.0000
     0.0000   0.0000   0.0000   0.0000   0.0000   0.0000   0.0000   0.0000

          k = 0.1875-0.1564 0.0000 (  7269 PWs)   bands (ev):

   -20.9705  -8.5593  -8.5347  -7.0873   1.7733   2.5090   2.6161   3.5219
     3.9584   5.1196   6.0787   6.5516   6.9105   9.0017   9.1336  10.2712

     occupation numbers 
     1.0000   1.0000   1.0000   1.0000   0.0000   0.0000   0.0000   0.0000
     0.0000   0.0000   0.0000   0.0000   0.0000   0.0000   0.0000   0.0000

          k = 0.1875-0.1083 0.0000 (  7283 PWs)   bands (ev):

   -21.1465  -8.7720  -8.0959  -6.8201   1.4773   2.2294   2.3121   3.2728
     3.6591   5.0381   5.8261   6.6367   6.8015   8.8110   8.8871   9.8019

     occupation numbers 
     1.0000   1.0000   1.0000   1.0000   0.0000   0.0000   0.0000   0.0000
     0.0000   0.0000   0.0000   0.0000   0.0000   0.0000   0.0000   0.0000

          k = 0.2292 0.3969 0.0000 (  7262 PWs)   bands (ev):

   -19.1634 -11.5516  -9.7806  -6.0368   1.8037   5.2176   6.1829   6.2046
     7.2325   7.4855   9.0568   9.0667   9.4674  10.8769  10.9901  12.9180

     occupation numbers 
     1.0000   1.0000   1.0000   1.0000   0.0000   0.0000   0.0000   0.0000
     0.0000   0.0000   0.0000   0.0000   0.0000   0.0000   0.0000   0.0000

          k = 0.2292 0.4450 0.0000 (  7249 PWs)   bands (ev):

   -18.8030 -11.9910 -10.1860  -5.5105   1.2292   6.1017   7.0495   7.1662
     8.0221   8.3882   9.2856   9.5612  10.3004  11.1379  11.4882  13.5125

     occupation numbers 
     1.0000   1.0000   1.0000   1.0000   0.0000   0.0000   0.0000   0.0000
     0.0000   0.0000   0.0000   0.0000   0.0000   0.0000   0.0000   0.0000

          k = 0.2292 0.4932 0.0000 (  7240 PWs)   bands (ev):

   -18.4977 -12.3674 -10.4638  -5.0470   0.7257   7.0255   7.8317   8.2275
     8.7732   9.0732   9.6514  10.0252  10.9137  11.7423  12.0772  12.8299

     occupation numbers 
     1.0000   1.0000   1.0000   1.0000   0.0000   0.0000   0.0000   0.0000
     0.0000   0.0000   0.0000   0.0000   0.0000   0.0000   0.0000   0.0000

          k = 0.2292 0.5413 0.0000 (  7244 PWs)   bands (ev):

   -18.3005 -12.6123 -10.6146  -4.7340   0.3880   7.8583   8.1868   9.1017
     9.4635   9.6801  10.3479  10.7861  10.9524  11.4355  11.6082  12.4550

     occupation numbers 
     1.0000   1.0000   1.0000   1.0000   0.0000   0.0000   0.0000   0.0000
     0.0000   0.0000   0.0000   0.0000   0.0000   0.0000   0.0000   0.0000

          k = 0.2292 0.5894 0.0000 (  7242 PWs)   bands (ev):

   -18.2580 -12.6651 -10.6444  -4.6647   0.3135   8.1052   8.2289   9.1392
    10.0041  10.2065  10.3164  10.7595  10.8406  11.3811  11.3921  12.0138

     occupation numbers 
     1.0000   1.0000   1.0000   1.0000   0.0000   0.0000   0.0000   0.0000
     0.0000   0.0000   0.0000   0.0000   0.0000   0.0000   0.0000   0.0000

          k = 0.2292 0.6375 0.0000 (  7240 PWs)   bands (ev):

   -18.3822 -12.5107 -10.5546  -4.8653   0.5294   7.4707   8.0703   8.7749
     9.1756   9.1895  10.0704  10.3791  10.9220  12.0144  12.0850  12.4304

     occupation numbers 
     1.0000   1.0000   1.0000   1.0000   0.0000   0.0000   0.0000   0.0000
     0.0000   0.0000   0.0000   0.0000   0.0000   0.0000   0.0000   0.0000

          k = 0.2292 0.6856 0.0000 (  7244 PWs)   bands (ev):

   -18.6403 -12.1911 -10.3411  -5.2661   0.9632   6.5629   7.4720   7.6856
     8.4010   8.8113   9.3878   9.7661  10.6793  11.3944  11.7974  13.4535

     occupation numbers 
     1.0000   1.0000   1.0000   1.0000   0.0000   0.0000   0.0000   0.0000
     0.0000   0.0000   0.0000   0.0000   0.0000   0.0000   0.0000   0.0000

          k = 0.2292-0.4210 0.0000 (  7256 PWs)   bands (ev):

   -18.9792 -11.7756  -9.9987  -5.7700   1.5124   5.6515   6.6122   6.6723
     7.6281   7.9327   9.2035   9.3353   9.8761  11.0126  11.1681  13.1885

     occupation numbers 
[...]
     5.7163   5.7197   6.8359   7.6893   8.2309  10.4757  10.8105  12.2114

     occupation numbers 
     1.0000   1.0000   1.0000   1.0000   0.0000   0.0000   0.0000   0.0000
     0.0000   0.0000   0.0000   0.0000   0.0000   0.0000   0.0000   0.0000

          k = 0.2708-0.2045 0.0000 (  7267 PWs)   bands (ev):

   -20.2420 -10.3392  -7.7926  -7.5435   3.0205   3.1477   3.9351   4.1871
     5.2085   5.3167   6.4457   7.2452   7.7506  10.0597  10.4927  12.2218

     occupation numbers 
     1.0000   1.0000   1.0000   1.0000   0.0000   0.0000   0.0000   0.0000
     0.0000   0.0000   0.0000   0.0000   0.0000   0.0000   0.0000   0.0000

          k = 0.2708-0.1564 0.0000 (  7257 PWs)   bands (ev):

   -20.4625  -9.8880  -7.8452  -7.5372   2.6308   3.1573   3.5228   3.9982
     4.8210   5.1052   6.2887   6.9189   7.3837   9.7160  10.1394  12.1656

     occupation numbers 
     1.0000   1.0000   1.0000   1.0000   0.0000   0.0000   0.0000   0.0000
     0.0000   0.0000   0.0000   0.0000   0.0000   0.0000   0.0000   0.0000

          k = 0.3125 0.5413 0.0000 (  7182 PWs)   bands (ev):

   -18.1186 -12.3779 -11.3113  -4.4432   0.2393   7.8591   8.6561   9.8771
    10.4967  10.6392  11.0449  11.6982  11.8113  12.4312  12.4427  12.4906

     occupation numbers 
     1.0000   1.0000   1.0000   1.0000   0.0000   0.0000   0.0000   0.0000
     0.0000   0.0000   0.0000   0.0000   0.0000   0.0000   0.0000   0.0000

          k = 0.3125 0.5894 0.0000 (  7184 PWs)   bands (ev):

   -18.0881 -12.3632 -11.3919  -4.3924   0.1988   7.8239   8.8396   9.9981
    10.8841  11.1861  11.2063  11.7913  11.8349  12.2635  12.2642  12.4446

     occupation numbers 
     1.0000   1.0000   1.0000   1.0000   0.0000   0.0000   0.0000   0.0000
     0.0000   0.0000   0.0000   0.0000   0.0000   0.0000   0.0000   0.0000

          k = 0.3125 0.6375 0.0000 (  7199 PWs)   bands (ev):

   -18.1780 -12.3960 -11.1633  -4.5412   0.3172   7.9186   8.3289   9.6990
     9.9566  10.0831  10.8932  11.2106  11.5049  12.4998  12.5711  12.9628

     occupation numbers 
     1.0000   1.0000   1.0000   1.0000   0.0000   0.0000   0.0000   0.0000
     0.0000   0.0000   0.0000   0.0000   0.0000   0.0000   0.0000   0.0000

          k = 0.3125 0.6856 0.0000 (  7232 PWs)   bands (ev):

   -18.3716 -12.3968 -10.7278  -4.8511   0.5659   7.4771   7.9725   8.7451
     9.1252   9.4110  10.0597  10.3302  11.1005  12.1143  12.4146  12.7380

     occupation numbers 
     1.0000   1.0000   1.0000   1.0000   0.0000   0.0000   0.0000   0.0000
     0.0000   0.0000   0.0000   0.0000   0.0000   0.0000   0.0000   0.0000

          k = 0.3125 0.7337 0.0000 (  7248 PWs)   bands (ev):

   -18.6376 -12.3155 -10.1806  -5.2600   0.9027   6.5792   7.5392   7.7333
     8.4716   8.6643   9.2550   9.8431  10.7529  11.4362  11.7552  12.9750

     occupation numbers 
     1.0000   1.0000   1.0000   1.0000   0.0000   0.0000   0.0000   0.0000
     0.0000   0.0000   0.0000   0.0000   0.0000   0.0000   0.0000   0.0000

          k = 0.3125-0.3729 0.0000 (  7249 PWs)   bands (ev):

   -18.9422 -12.1454  -9.5865  -5.7117   1.2940   5.7305   6.7832   6.8227
     7.8054   7.8078   8.4605   9.5478  10.3034  11.2283  11.4407  13.1708

     occupation numbers 
     1.0000   1.0000   1.0000   1.0000   0.0000   0.0000   0.0000   0.0000
     0.0000   0.0000   0.0000   0.0000   0.0000   0.0000   0.0000   0.0000

          k = 0.3125-0.3248 0.0000 (  7257 PWs)   bands (ev):

   -19.2561 -11.8941  -9.0020  -6.1649   1.7168   4.9658   6.0205   6.0427
     7.0182   7.1208   7.7192   9.0321   9.6720  11.3376  11.4732  12.9696

     occupation numbers 
     1.0000   1.0000   1.0000   1.0000   0.0000   0.0000   0.0000   0.0000
     0.0000   0.0000   0.0000   0.0000   0.0000   0.0000   0.0000   0.0000

          k = 0.3125-0.2766 0.0000 (  7266 PWs)   bands (ev):

   -19.5568 -11.5727  -8.4836  -6.5912   2.1502   4.3049   5.3298   5.3922
     6.3623   6.5009   7.0925   8.4679   9.0542  11.1361  11.4747  12.7228

     occupation numbers 
     1.0000   1.0000   1.0000   1.0000   0.0000   0.0000   0.0000   0.0000
     0.0000   0.0000   0.0000   0.0000   0.0000   0.0000   0.0000   0.0000

          k = 0.3125-0.2285 0.0000 (  7268 PWs)   bands (ev):

   -19.8283 -11.1945  -8.0861  -6.9710   2.5664   3.7603   4.7524   4.8537
     5.8584   5.9819   6.6298   7.9633   8.5160  10.7447  11.2348  12.7424

     occupation numbers 
     1.0000   1.0000   1.0000   1.0000   0.0000   0.0000   0.0000   0.0000
     0.0000   0.0000   0.0000   0.0000   0.0000   0.0000   0.0000   0.0000

          k = 0.3125-0.1804 0.0000 (  7259 PWs)   bands (ev):

   -20.0592 -10.7756  -7.8514  -7.2914   2.9203   3.3346   4.2881   4.4445
     5.4874   5.5823   6.3961   7.5518   8.0772  10.3659  10.8729  12.8362

     occupation numbers 
     1.0000   1.0000   1.0000   1.0000   0.0000   0.0000   0.0000   0.0000
     0.0000   0.0000   0.0000   0.0000   0.0000   0.0000   0.0000   0.0000

          k = 0.3542 0.6134 0.0000 (  7182 PWs)   bands (ev):

   -18.1104 -12.4145 -11.2859  -4.4288   0.2178   7.8740   8.7544   9.8214
    10.8341  11.1138  11.1513  11.2631  11.4069  12.1685  12.1909  12.5219

     occupation numbers 
     1.0000   1.0000   1.0000   1.0000   0.0000   0.0000   0.0000   0.0000
     0.0000   0.0000   0.0000   0.0000   0.0000   0.0000   0.0000   0.0000

          k = 0.3542 0.6615 0.0000 (  7229 PWs)   bands (ev):

   -18.2182 -12.5590 -10.8743  -4.6032   0.3125   8.0832   8.2479   9.3695
     9.9733  10.1539  10.5923  11.1476  11.2539  11.4422  11.5945  12.4481

     occupation numbers 
     1.0000   1.0000   1.0000   1.0000   0.0000   0.0000   0.0000   0.0000
     0.0000   0.0000   0.0000   0.0000   0.0000   0.0000   0.0000   0.0000

          k = 0.3542 0.7097 0.0000 (  7252 PWs)   bands (ev):

   -18.3985 -12.6418 -10.3362  -4.8876   0.4819   7.4331   8.2064   8.7312
     9.0106   9.2828  10.0705  10.4386  10.6765  11.5542  11.6706  12.2851

     occupation numbers 
     1.0000   1.0000   1.0000   1.0000   0.0000   0.0000   0.0000   0.0000
     0.0000   0.0000   0.0000   0.0000   0.0000   0.0000   0.0000   0.0000

          k = 0.3542 0.7578 0.0000 (  7263 PWs)   bands (ev):

   -18.6308 -12.6207  -9.7558  -5.2431   0.7227   6.5720   7.7609   7.8411
     8.1868   8.7037   9.3158  10.0779  10.5710  11.4768  11.6346  11.9426

     occupation numbers 
     1.0000   1.0000   1.0000   1.0000   0.0000   0.0000   0.0000   0.0000
     0.0000   0.0000   0.0000   0.0000   0.0000   0.0000   0.0000   0.0000

          k = 0.3542-0.3488 0.0000 (  7257 PWs)   bands (ev):

   -18.8916 -12.4939  -9.1907  -5.6314   1.0282   5.7719   7.0010   7.0343
     7.4143   8.0654   8.5328   9.8269  10.4933  11.2177  11.4058  12.3751

     occupation numbers 
     1.0000   1.0000   1.0000   1.0000   0.0000   0.0000   0.0000   0.0000
     0.0000   0.0000   0.0000   0.0000   0.0000   0.0000   0.0000   0.0000

          k = 0.3542-0.3007 0.0000 (  7268 PWs)   bands (ev):

   -19.1584 -12.2721  -8.6958  -6.0201   1.3870   5.0796   6.2698   6.3393
     6.7589   7.4159   7.8330   9.3305   9.9672  11.4004  11.5874  12.8147

     occupation numbers 
     1.0000   1.0000   1.0000   1.0000   0.0000   0.0000   0.0000   0.0000
     0.0000   0.0000   0.0000   0.0000   0.0000   0.0000   0.0000   0.0000

          k = 0.3542-0.2526 0.0000 (  7276 PWs)   bands (ev):

   -19.4125 -11.9697  -8.3240  -6.3842   1.7817   4.5182   5.6545   5.7353
     6.2754   6.8374   7.2470   8.8021   9.3982  11.4343  11.6476  12.7427

     occupation numbers 
     1.0000   1.0000   1.0000   1.0000   0.0000   0.0000   0.0000   0.0000
     0.0000   0.0000   0.0000   0.0000   0.0000   0.0000   0.0000   0.0000

          k = 0.3542-0.2045 0.0000 (  7265 PWs)   bands (ev):

   -19.6393 -11.6035  -8.1161  -6.7055   2.1868   4.0854   5.1503   5.2376
     5.9953   6.3559   6.8113   8.3373   8.9078  11.0843  11.5648  12.7685

     occupation numbers 
     1.0000   1.0000   1.0000   1.0000   0.0000   0.0000   0.0000   0.0000
     0.0000   0.0000   0.0000   0.0000   0.0000   0.0000   0.0000   0.0000

          k = 0.3958 0.6856 0.0000 (  7244 PWs)   bands (ev):

   -18.3104 -12.7606 -10.3874  -4.7455   0.3228   7.8475   8.3895   8.9461
     9.8607  10.1639  10.1719  10.3075  10.5125  11.2527  11.3325  11.6497

     occupation numbers 
     1.0000   1.0000   1.0000   1.0000   0.0000   0.0000   0.0000   0.0000
     0.0000   0.0000   0.0000   0.0000   0.0000   0.0000   0.0000   0.0000

          k = 0.3958 0.7337 0.0000 (  7252 PWs)   bands (ev):

   -18.4500 -12.8865  -9.8400  -4.9599   0.3834   7.1070   8.4547   8.5455
     9.1599   9.5218   9.6715  10.3912  10.4540  10.6072  10.9531  11.7447

     occupation numbers 
     1.0000   1.0000   1.0000   1.0000   0.0000   0.0000   0.0000   0.0000
     0.0000   0.0000   0.0000   0.0000   0.0000   0.0000   0.0000   0.0000

          k = 0.3958 0.7818 0.0000 (  7246 PWs)   bands (ev):

   -18.6273 -12.9037  -9.3047  -5.2293   0.5208   6.3256   7.7468   8.0824
     8.2979   9.0278   9.5137  10.0067  10.2602  10.9103  11.0947  11.7608

     occupation numbers 
     1.0000   1.0000   1.0000   1.0000   0.0000   0.0000   0.0000   0.0000
     0.0000   0.0000   0.0000   0.0000   0.0000   0.0000   0.0000   0.0000

          k = 0.3958-0.3248 0.0000 (  7265 PWs)   bands (ev):

   -18.8282 -12.8088  -8.8399  -5.5305   0.7433   5.6498   7.0608   7.3896
     7.5269   8.4204   8.8409  10.1519  10.2513  11.1532  11.2117  11.4548

     occupation numbers 
     1.0000   1.0000   1.0000   1.0000   0.0000   0.0000   0.0000   0.0000
     0.0000   0.0000   0.0000   0.0000   0.0000   0.0000   0.0000   0.0000

          k = 0.3958-0.2766 0.0000 (  7272 PWs)   bands (ev):

   -19.0362 -12.6105  -8.4986  -5.8379   1.0427   5.1353   6.4871   6.7421
     6.8814   7.8117   8.1932   9.7099  10.2893  10.9657  11.5736  12.0619

     occupation numbers 
     1.0000   1.0000   1.0000   1.0000   0.0000   0.0000   0.0000   0.0000
     0.0000   0.0000   0.0000   0.0000   0.0000   0.0000   0.0000   0.0000

          k = 0.3958-0.2285 0.0000 (  7277 PWs)   bands (ev):

   -19.2355 -12.3243  -8.3218  -6.1286   1.3990   4.7779   6.0384   6.1867
     6.4233   7.2769   7.6516   9.2249   9.8316  11.3727  11.6863  12.7059

     occupation numbers 
     1.0000   1.0000   1.0000   1.0000   0.0000   0.0000   0.0000   0.0000
     0.0000   0.0000   0.0000   0.0000   0.0000   0.0000   0.0000   0.0000

          k = 0.4375 0.7578 0.0000 (  7252 PWs)   bands (ev):

   -18.5289 -13.0515  -9.3429  -5.0748   0.3292   6.4824   8.3818   8.8167
     9.0299   9.5171   9.5407   9.6070  10.0499  10.6511  10.7418  10.9887

     occupation numbers 
     1.0000   1.0000   1.0000   1.0000   0.0000   0.0000   0.0000   0.0000
     0.0000   0.0000   0.0000   0.0000   0.0000   0.0000   0.0000   0.0000

          k = 0.4375 0.8059 0.0000 (  7252 PWs)   bands (ev):

   -18.6347 -13.1072  -8.9127  -5.2328   0.3620   5.8722   7.9066   8.4826
     8.6759   9.1512   9.3594   9.9589   9.9737  10.1015  10.7267  11.2988

     occupation numbers 
     1.0000   1.0000   1.0000   1.0000   0.0000   0.0000   0.0000   0.0000
     0.0000   0.0000   0.0000   0.0000   0.0000   0.0000   0.0000   0.0000

          k = 0.4375-0.3007 0.0000 (  7258 PWs)   bands (ev):

   -18.7619 -13.0466  -8.6052  -5.4247   0.4991   5.4312   7.3042   7.8433
     7.9607   8.8577   9.2273   9.6868  10.2441  10.5862  10.8529  11.5116

     occupation numbers 
     1.0000   1.0000   1.0000   1.0000   0.0000   0.0000   0.0000   0.0000
     0.0000   0.0000   0.0000   0.0000   0.0000   0.0000   0.0000   0.0000

          k = 0.4375-0.2526 0.0000 (  7273 PWs)   bands (ev):

   -18.9000 -12.8761  -8.4622  -5.6331   0.7341   5.2031   6.8067   7.2471
     7.3477   8.3000   8.6809  10.1226  10.1378  10.9928  11.1208  11.2915

     occupation numbers 
     1.0000   1.0000   1.0000   1.0000   0.0000   0.0000   0.0000   0.0000
     0.0000   0.0000   0.0000   0.0000   0.0000   0.0000   0.0000   0.0000

          k = 0.4792 0.8299 0.0000 (  7270 PWs)   bands (ev):

   -18.6592 -13.2037  -8.6411  -5.2654   0.2942   5.5014   8.1107   8.6395
     8.8069   9.1903   9.2355   9.2660   9.8853  10.3667  10.4425  10.6567

     occupation numbers 
     1.0000   1.0000   1.0000   1.0000   0.0000   0.0000   0.0000   0.0000
     0.0000   0.0000   0.0000   0.0000   0.0000   0.0000   0.0000   0.0000

          k = 0.4792-0.2766 0.0000 (  7276 PWs)   bands (ev):

   -18.7028 -13.1828  -8.5333  -5.3314   0.3407   5.3488   7.7353   8.3778
     8.5142   8.9866   9.2947   9.8135   9.8162   9.9341  10.6579  11.1473

     occupation numbers 
     1.0000   1.0000   1.0000   1.0000   0.0000   0.0000   0.0000   0.0000
     0.0000   0.0000   0.0000   0.0000   0.0000   0.0000   0.0000   0.0000

     highest occupied, lowest unoccupied level (ev):    -4.3924    0.1988

!    total energy              =     -26.58915734 Ry
     Harris-Foulkes estimate   =     -26.58915734 Ry
     estimated scf accuracy    <          1.5E-12 Ry

     The total energy is the sum of the following terms:

     one-electron contribution =    -221.33098352 Ry
     hartree contribution      =     112.11380871 Ry
     xc contribution           =      -8.15783883 Ry
     ewald contribution        =      90.78585631 Ry

     convergence has been achieved in   9 iterations

     Forces acting on atoms (cartesian axes, Ry/au):

     atom    1 type  1   force =     0.00000000   -0.00000000    0.00000000
     atom    2 type  2   force =     0.00000000    0.00000000    0.00000000
     The non-local contrib.  to forces
     atom    1 type  1   force =    -0.00000000   -0.00000000    0.00000000
     atom    2 type  2   force =     0.00000000    0.00000000    0.00000000
     The ionic contribution  to forces
     atom    1 type  1   force =     0.00000000    0.00000000    0.00000000
     atom    2 type  2   force =    -0.00000000   -0.00000000   -0.00000000
     The local contribution  to forces
     atom    1 type  1   force =    -0.00000000    0.00000000    0.00000000
     atom    2 type  2   force =    -0.00000000    0.00000000    0.00000000
     The core correction contribution to forces
     atom    1 type  1   force =    -0.00000000    0.00000000    0.00000000
     atom    2 type  2   force =     0.00000000    0.00000000    0.00000000
     The Hubbard contrib.    to forces
     atom    1 type  1   force =     0.00000000    0.00000000    0.00000000
     atom    2 type  2   force =     0.00000000    0.00000000    0.00000000
     The SCF correction term to forces
     atom    1 type  1   force =     0.00000000   -0.00000000   -0.00000000
     atom    2 type  2   force =    -0.00000000   -0.00000000    0.00000000

     Total force =     0.000000     Total SCF correction =     0.000000


     Computing stress (Cartesian axis) and pressure

          total   stress  (Ry/bohr**3)                   (kbar)     P=  -12.86
  -0.00012396   0.00000000   0.00000000        -18.24      0.00      0.00
   0.00000000  -0.00012396  -0.00000000          0.00    -18.24     -0.00
   0.00000000   0.00000000  -0.00001431          0.00      0.00     -2.10

     kinetic stress (kbar)   2426.12     -0.00      0.00
                               -0.00   2426.12      0.00
                                0.00      0.00   2645.12

     local   stress (kbar) -45955.97     -0.00      0.00
                               -0.00 -45955.97      0.00
                                0.00      0.00  45952.33

     nonloc. stress (kbar)   -272.38      0.00     -0.00
                                0.00   -272.38      0.00
                               -0.00      0.00   -269.14

     hartree stress (kbar)  22053.84      0.00      0.00
                                0.00  22053.84      0.00
                                0.00      0.00 -21639.57

     exc-cor stress (kbar)   -294.56      0.00      0.00
                                0.00   -294.56      0.00
                                0.00      0.00   -294.56

     corecor stress (kbar)   -182.52     -0.00      0.00
                               -0.00   -182.52      0.00
                                0.00      0.00   -175.69

     ewald   stress (kbar)  22207.24      0.00     -0.00
                                0.00  22207.24     -0.00
                               -0.00     -0.00 -26220.58

     hubbard stress (kbar)      0.00      0.00      0.00
                                0.00      0.00      0.00
                                0.00      0.00      0.00

     london  stress (kbar)      0.00      0.00      0.00
                                0.00      0.00      0.00
                                0.00      0.00      0.00

     DFT-D3  stress (kbar)      0.00      0.00      0.00
                                0.00      0.00      0.00
                                0.00      0.00      0.00

     XDM     stress (kbar)      0.00      0.00      0.00
                                0.00      0.00      0.00
                                0.00      0.00      0.00

     dft-nl  stress (kbar)      0.00      0.00      0.00
                                0.00      0.00      0.00
                                0.00      0.00      0.00

     TS-vdW  stress (kbar)      0.00      0.00      0.00
                                0.00      0.00      0.00
                                0.00      0.00      0.00



     Writing output data file BN.save/
 
     init_run     :      3.56s CPU      3.74s WALL (       1 calls)
     electrons    :     61.23s CPU     62.18s WALL (       1 calls)
     forces       :      0.23s CPU      0.24s WALL (       1 calls)
     stress       :      1.28s CPU      1.29s WALL (       1 calls)

     Called by init_run:
     wfcinit      :      3.45s CPU      3.62s WALL (       1 calls)
     wfcinit:atom :      0.10s CPU      0.17s WALL (      39 calls)
     wfcinit:wfcr :      3.05s CPU      3.10s WALL (      39 calls)
     potinit      :      0.02s CPU      0.02s WALL (       1 calls)
     hinit0       :      0.08s CPU      0.08s WALL (       1 calls)

     Called by electrons:
     c_bands      :     53.59s CPU     54.34s WALL (       9 calls)
     sum_band     :      7.46s CPU      7.55s WALL (       9 calls)
     v_of_rho     :      0.06s CPU      0.07s WALL (      10 calls)
     v_h          :      0.02s CPU      0.02s WALL (      10 calls)
     v_xc         :      0.05s CPU      0.05s WALL (      12 calls)
     mix_rho      :      0.09s CPU      0.12s WALL (       9 calls)

     Called by c_bands:
     init_us_2    :      0.98s CPU      1.00s WALL (     819 calls)
     cegterg      :     45.42s CPU     46.11s WALL (     351 calls)

     Called by sum_band:

     Called by *egterg:
     h_psi        :     41.65s CPU     42.14s WALL (    1780 calls)
     g_psi        :      0.23s CPU      0.23s WALL (    1390 calls)
     cdiaghg      :      0.78s CPU      0.80s WALL (    1741 calls)
     cegterg:over :      2.53s CPU      2.56s WALL (    1390 calls)
     cegterg:upda :      1.81s CPU      1.93s WALL (    1390 calls)
     cegterg:last :      0.64s CPU      0.65s WALL (     390 calls)

     Called by h_psi:
     h_psi:pot    :     41.33s CPU     41.69s WALL (    1780 calls)
     h_psi:calbec :      0.86s CPU      0.87s WALL (    1780 calls)
     vloc_psi     :     39.66s CPU     40.01s WALL (    1780 calls)
     add_vuspsi   :      0.78s CPU      0.80s WALL (    1780 calls)

     General routines
     calbec       :      0.97s CPU      0.98s WALL (    1975 calls)
     fft          :      0.04s CPU      0.04s WALL (      37 calls)
     ffts         :      0.01s CPU      0.01s WALL (       9 calls)
     fftw         :     39.29s CPU     39.62s WALL (   41346 calls)
 
     Parallel routines
 
     PWSCF        :   1m 6.37s CPU   1m 7.89s WALL

 
   This run was terminated on:   1:17: 0   1Jul2020            

=------------------------------------------------------------------------------=
   JOB DONE.
=------------------------------------------------------------------------------=
