<PP_INFO>
Generated using Fritz-Haber code                                                
Author: unknown    Generation date: as well                                     
Info: automatically converted from FHI format                                   
    1        The Pseudo was generated with a Scalar-Relativistic Calculation
nl pn  l   occ               Rcut            Rcut US             E pseu
2s  0  0  2.00      0.00000000000      0.00000000000      0.00000000000
2p  0  1  3.00      0.00000000000      0.00000000000      0.00000000000
3d  0  2  0.00      0.00000000000      0.00000000000      0.00000000000
4f  0  3  0.00      0.00000000000      0.00000000000      0.00000000000

 7.00 1 2 3 0.00 : z nc nv
    1  0   2.00      : n  l   f 
    2  0   2.00 
    2  1   3.00
3 t
0   1.37  0.00 t
1   1.37  0.00 t
2   1.37  0.00 t
3   1.37  0.01 t
[kioup@Macbook] [21:51:26] [~/work/GaN_QD/pseudo/N/LDA] $ ~/code/espresso-4.3.1/upftools/fhi2upf.x
Input file > n.cpi      
Pseudopotential without NLCC successfully read
Atom name > N
l local (max: 3) > 3
DFT > PZ
Wavefunction # 1: label, occupancy > 2s, 2.00
Wavefunction # 2: label, occupancy > 2p, 3.00
Wavefunction # 3: label, occupancy > 3d, 0.00
Wavefunction # 4: label, occupancy > 4f, 0.00
Pseudopotential successfully converted
Output PP file in UPF format :  n.cpi.UPF  

</PP_INFO>


<PP_HEADER>
   0                   Version Number
  N                    Element
   NC                  Norm - Conserving pseudopotential
    F                  Nonlinear Core Correction
SLA  PZ   NOGX NOGC    PZ   Exchange-Correlation functional
    5.00000000000      Z valence
    0.00000000000      Total energy
    0.00000    0.00000 Suggested cutoff for wfc and rho
    2                  Max angular momentum component
  467                  Number of points in mesh
    4    3             Number of Wavefunctions, Number of Projectors
 Wavefunctions         nl  l   occ
                       2s  0  2.00
                       2p  1  3.00
                       3d  2  0.00
                       4f  3  0.00
</PP_HEADER>


<PP_MESH>
  <PP_R>
  8.92857142857E-04  9.14910714286E-04  9.37509008929E-04  9.60665481449E-04
  9.84393918841E-04  1.00870844864E-03  1.03362354732E-03  1.05915404894E-03
  1.08531515395E-03  1.11212243825E-03  1.13959186247E-03  1.16773978148E-03
  1.19658295408E-03  1.22613855304E-03  1.25642417530E-03  1.28745785243E-03
  1.31925806139E-03  1.35184373550E-03  1.38523427577E-03  1.41944956238E-03
  1.45450996657E-03  1.49043636275E-03  1.52725014091E-03  1.56497321939E-03
  1.60362805791E-03  1.64323767094E-03  1.68382564141E-03  1.72541613475E-03
  1.76803391328E-03  1.81170435094E-03  1.85645344841E-03  1.90230784858E-03
  1.94929485244E-03  1.99744243530E-03  2.04677926345E-03  2.09733471126E-03
  2.14913887863E-03  2.20222260893E-03  2.25661750737E-03  2.31235595980E-03
  2.36947115201E-03  2.42799708946E-03  2.48796861757E-03  2.54942144243E-03
  2.61239215205E-03  2.67691823821E-03  2.74303811869E-03  2.81079116023E-03
  2.88021770188E-03  2.95135907912E-03  3.02425764837E-03  3.09895681229E-03
  3.17550104555E-03  3.25393592138E-03  3.33430813864E-03  3.41666554966E-03
  3.50105718874E-03  3.58753330130E-03  3.67614537384E-03  3.76694616457E-03
  3.85998973484E-03  3.95533148129E-03  4.05302816888E-03  4.15313796465E-03
  4.25572047238E-03  4.36083676804E-03  4.46854943621E-03  4.57892260729E-03
  4.69202199569E-03  4.80791493898E-03  4.92667043797E-03  5.04835919779E-03
  5.17305366998E-03  5.30082809563E-03  5.43175854959E-03  5.56592298576E-03
  5.70340128351E-03  5.84427529521E-03  5.98862889501E-03  6.13654802871E-03
  6.28812076502E-03  6.44343734792E-03  6.60259025041E-03  6.76567422960E-03
  6.93278638307E-03  7.10402620673E-03  7.27949565404E-03  7.45929919669E-03
  7.64354388685E-03  7.83233942085E-03  8.02579820455E-03  8.22403542020E-03
  8.42716909508E-03  8.63532017173E-03  8.84861257997E-03  9.06717331070E-03
  9.29113249147E-03  9.52062346401E-03  9.75578286357E-03  9.99675070030E-03
  1.02436704426E-02  1.04966891025E-02  1.07559573234E-02  1.10216294692E-02
  1.12938637171E-02  1.15728221510E-02  1.18586708581E-02  1.21515800283E-02
  1.24517240550E-02  1.27592816391E-02  1.30744358956E-02  1.33973744622E-02
  1.37282896115E-02  1.40673783649E-02  1.44148426105E-02  1.47708892230E-02
  1.51357301868E-02  1.55095827224E-02  1.58926694156E-02  1.62852183502E-02
  1.66874632434E-02  1.70996435855E-02  1.75220047821E-02  1.79547983002E-02
  1.83982818182E-02  1.88527193792E-02  1.93183815478E-02  1.97955455720E-02
  2.02844955477E-02  2.07855225877E-02  2.12989249956E-02  2.18250084430E-02
  2.23640861516E-02  2.29164790795E-02  2.34825161128E-02  2.40625342607E-02
  2.46568788570E-02  2.52659037648E-02  2.58899715877E-02  2.65294538860E-02
  2.71847313969E-02  2.78561942624E-02  2.85442422607E-02  2.92492850446E-02
  2.99717423852E-02  3.07120444221E-02  3.14706319193E-02  3.22479565277E-02
  3.30444810540E-02  3.38606797360E-02  3.46970385255E-02  3.55540553770E-02
  3.64322405449E-02  3.73321168863E-02  3.82542201734E-02  3.91990994117E-02
  4.01673171672E-02  4.11594499012E-02  4.21760883137E-02  4.32178376951E-02
  4.42853182862E-02  4.53791656478E-02  4.65000310393E-02  4.76485818060E-02
  4.88255017766E-02  5.00314916705E-02  5.12672695148E-02  5.25335710718E-02
  5.38311502772E-02  5.51607796891E-02  5.65232509474E-02  5.79193752458E-02
  5.93499838144E-02  6.08159284146E-02  6.23180818464E-02  6.38573384681E-02
  6.54346147282E-02  6.70508497120E-02  6.87070056999E-02  7.04040687407E-02
  7.21430492386E-02  7.39249825548E-02  7.57509296239E-02  7.76219775856E-02
  7.95392404319E-02  8.15038596706E-02  8.35170050045E-02  8.55798750281E-02
  8.76936979413E-02  8.98597322804E-02  9.20792676677E-02  9.43536255791E-02
  9.66841601309E-02  9.90722588862E-02  1.01519343681E-01  1.04026871470E-01
  1.06596335195E-01  1.09229264674E-01  1.11927227512E-01  1.14691830031E-01
  1.17524718233E-01  1.20427578773E-01  1.23402139969E-01  1.26450172826E-01
  1.29573492095E-01  1.32773957350E-01  1.36053474096E-01  1.39413994907E-01
  1.42857520581E-01  1.46386101339E-01  1.50001838042E-01  1.53706883442E-01
  1.57503443463E-01  1.61393778516E-01  1.65380204846E-01  1.69465095905E-01
  1.73650883774E-01  1.77940060603E-01  1.82335180100E-01  1.86838859049E-01
  1.91453778867E-01  1.96182687205E-01  2.01028399579E-01  2.05993801049E-01
  2.11081847935E-01  2.16295569579E-01  2.21638070147E-01  2.27112530480E-01
  2.32722209983E-01  2.38470448570E-01  2.44360668649E-01  2.50396377165E-01
  2.56581167681E-01  2.62918722522E-01  2.69412814969E-01  2.76067311499E-01
  2.82886174093E-01  2.89873462593E-01  2.97033337119E-01  3.04370060545E-01
  3.11888001041E-01  3.19591634667E-01  3.27485548043E-01  3.35574441080E-01
  3.43863129774E-01  3.52356549080E-01  3.61059755842E-01  3.69977931811E-01
  3.79116386727E-01  3.88480561479E-01  3.98076031348E-01  4.07908509322E-01
  4.17983849502E-01  4.28308050585E-01  4.38887259434E-01  4.49727774742E-01
  4.60836050779E-01  4.72218701233E-01  4.83882503153E-01  4.95834400981E-01
  5.08081510685E-01  5.20631123999E-01  5.33490712762E-01  5.46667933367E-01
  5.60170631321E-01  5.74006845915E-01  5.88184815009E-01  6.02712979940E-01
  6.17599990544E-01  6.32854710311E-01  6.48486221656E-01  6.64503831330E-01
  6.80917075964E-01  6.97735727741E-01  7.14969800216E-01  7.32629554281E-01
  7.50725504272E-01  7.69268424227E-01  7.88269354306E-01  8.07739607357E-01
  8.27690775659E-01  8.48134737818E-01  8.69083665842E-01  8.90550032388E-01
  9.12546618188E-01  9.35086519657E-01  9.58183156693E-01  9.81850280663E-01
  1.00610198260E+00  1.03095270157E+00  1.05641723329E+00  1.08251073896E+00
  1.10924875421E+00  1.13664719844E+00  1.16472238424E+00  1.19349102713E+00
  1.22297025550E+00  1.25317762081E+00  1.28413110804E+00  1.31584914641E+00
  1.34835062033E+00  1.38165488065E+00  1.41578175620E+00  1.45075156558E+00
  1.48658512925E+00  1.52330378195E+00  1.56092938536E+00  1.59948434118E+00
  1.63899160440E+00  1.67947469703E+00  1.72095772205E+00  1.76346537778E+00
  1.80702297262E+00  1.85165644004E+00  1.89739235411E+00  1.94425794526E+00
  1.99228111650E+00  2.04149046008E+00  2.09191527444E+00  2.14358558172E+00
  2.19653214559E+00  2.25078648959E+00  2.30638091588E+00  2.36334852450E+00
  2.42172323306E+00  2.48153979691E+00  2.54283382990E+00  2.60564182550E+00
  2.67000117859E+00  2.73595020770E+00  2.80352817783E+00  2.87277532382E+00
  2.94373287432E+00  3.01644307631E+00  3.09094922030E+00  3.16729566604E+00
  3.24552786899E+00  3.32569240736E+00  3.40783700982E+00  3.49201058396E+00
  3.57826324538E+00  3.66664634755E+00  3.75721251233E+00  3.85001566138E+00
  3.94511104822E+00  4.04255529111E+00  4.14240640680E+00  4.24472384505E+00
  4.34956852402E+00  4.45700286657E+00  4.56709083737E+00  4.67989798105E+00
  4.79549146119E+00  4.91394010028E+00  5.03531442075E+00  5.15968668695E+00
  5.28713094811E+00  5.41772308253E+00  5.55154084267E+00  5.68866390148E+00
  5.82917389985E+00  5.97315449518E+00  6.12069141121E+00  6.27187248907E+00
  6.42678773954E+00  6.58552939671E+00  6.74819197281E+00  6.91487231454E+00
  7.08566966071E+00  7.26068570133E+00  7.44002463815E+00  7.62379324671E+00
  7.81210093991E+00  8.00505983312E+00  8.20278481100E+00  8.40539359583E+00
  8.61300681765E+00  8.82574808604E+00  9.04374406377E+00  9.26712454215E+00
  9.49602251834E+00  9.73057427454E+00  9.97091945912E+00  1.02172011698E+01
  1.04695660387E+01  1.07281643198E+01  1.09931499785E+01  1.12646807830E+01
  1.15429183983E+01  1.18280284828E+01  1.21201807863E+01  1.24195492517E+01
  1.27263121182E+01  1.30406520275E+01  1.33627561326E+01  1.36928162091E+01
  1.40310287695E+01  1.43775951801E+01  1.47327217810E+01  1.50966200090E+01
  1.54695065232E+01  1.58516033343E+01  1.62431379367E+01  1.66443434437E+01
  1.70554587268E+01  1.74767285574E+01  1.79084037527E+01  1.83507413254E+01
  1.88040046362E+01  1.92684635507E+01  1.97443946004E+01  2.02320811470E+01
  2.07318135513E+01  2.12438893460E+01  2.17686134129E+01  2.23062981642E+01
  2.28572637288E+01  2.34218381429E+01  2.40003575451E+01  2.45931663764E+01
  2.52006175859E+01  2.58230728403E+01  2.64609027395E+01  2.71144870371E+01
  2.77842148669E+01  2.84704849742E+01  2.91737059530E+01  2.98942964901E+01
  3.06326856134E+01  3.13893129480E+01  3.21646289778E+01  3.29590953136E+01
  3.37731849678E+01  3.46073826365E+01  3.54621849877E+01  3.63381009569E+01
  3.72356520505E+01  3.81553726561E+01  3.90978103607E+01  4.00635262767E+01
  4.10530953757E+01  4.20671068315E+01  4.31061643702E+01  4.41708866302E+01
  4.52619075299E+01  4.63798766459E+01  4.75254595991E+01  4.86993384512E+01
  4.99022121109E+01  5.11347967500E+01  5.23978262298E+01  5.36920525376E+01
  5.50182462353E+01  5.63771969173E+01  5.77697136812E+01  5.91966256091E+01
  6.06587822617E+01  6.21570541835E+01  6.36923334219E+01  6.52655340574E+01
  6.68775927486E+01  6.85294692895E+01  7.02221471809E+01  7.19566342163E+01
  7.37339630814E+01  7.55551919696E+01  7.74214052112E+01
  </PP_R>
  <PP_RAB>
  2.17856132353E-05  2.23237178822E-05  2.28751137139E-05  2.34401290226E-05
  2.40191002095E-05  2.46123719847E-05  2.52202975727E-05  2.58432389227E-05
  2.64815669241E-05  2.71356616272E-05  2.78059124693E-05  2.84927185073E-05
  2.91964886545E-05  2.99176419242E-05  3.06566076798E-05  3.14138258895E-05
  3.21897473889E-05  3.29848341494E-05  3.37995595529E-05  3.46344086739E-05
  3.54898785681E-05  3.63664785688E-05  3.72647305894E-05  3.81851694350E-05
  3.91283431200E-05  4.00948131951E-05  4.10851550810E-05  4.20999584115E-05
  4.31398273842E-05  4.42053811206E-05  4.52972540343E-05  4.64160962090E-05
  4.75625737853E-05  4.87373693578E-05  4.99411823810E-05  5.11747295858E-05
  5.24387454065E-05  5.37339824181E-05  5.50612117838E-05  5.64212237149E-05
  5.78148279406E-05  5.92428541908E-05  6.07061526893E-05  6.22055946607E-05
  6.37420728488E-05  6.53165020482E-05  6.69298196488E-05  6.85829861941E-05
  7.02769859531E-05  7.20128275061E-05  7.37915443455E-05  7.56141954909E-05
  7.74818661195E-05  7.93956682126E-05  8.13567412175E-05  8.33662527256E-05
  8.54253991679E-05  8.75354065273E-05  8.96975310686E-05  9.19130600860E-05
  9.41833126701E-05  9.65096404930E-05  9.88934286132E-05  1.01336096300E-04
  1.03839097879E-04  1.06403923596E-04  1.09032100509E-04  1.11725193392E-04
  1.14484805668E-04  1.17312580368E-04  1.20210201103E-04  1.23179393071E-04
  1.26221924080E-04  1.29339605604E-04  1.32534293863E-04  1.35807890921E-04
  1.39162345827E-04  1.42599655769E-04  1.46121867266E-04  1.49731077388E-04
  1.53429434999E-04  1.57219142044E-04  1.61102454852E-04  1.65081685487E-04
  1.69159203119E-04  1.73337435436E-04  1.77618870091E-04  1.82006056182E-04
  1.86501605770E-04  1.91108195432E-04  1.95828567860E-04  2.00665533486E-04
  2.05621972163E-04  2.10700834875E-04  2.15905145497E-04  2.21238002590E-04
  2.26702581254E-04  2.32302135011E-04  2.38039997746E-04  2.43919585690E-04
  2.49944399457E-04  2.56118026124E-04  2.62444141369E-04  2.68926511661E-04
  2.75568996499E-04  2.82375550712E-04  2.89350226815E-04  2.96497177417E-04
  3.03820657699E-04  3.11325027944E-04  3.19014756135E-04  3.26894420611E-04
  3.34968712800E-04  3.43242440007E-04  3.51720528275E-04  3.60408025323E-04
  3.69310103549E-04  3.78432063106E-04  3.87779335065E-04  3.97357484641E-04
  4.07172214512E-04  4.17229368210E-04  4.27534933605E-04  4.38095046465E-04
  4.48915994113E-04  4.60004219167E-04  4.71366323381E-04  4.83009071568E-04
  4.94939395636E-04  5.07164398708E-04  5.19691359356E-04  5.32527735932E-04
  5.45681171010E-04  5.59159495934E-04  5.72970735483E-04  5.87123112650E-04
  6.01625053532E-04  6.16485192354E-04  6.31712376605E-04  6.47315672308E-04
  6.63304369414E-04  6.79687987338E-04  6.96476280625E-04  7.13679244757E-04
  7.31307122102E-04  7.49370408018E-04  7.67879857096E-04  7.86846489567E-04
  8.06281597859E-04  8.26196753326E-04  8.46603813133E-04  8.67514927318E-04
  8.88942546022E-04  9.10899426909E-04  9.33398642754E-04  9.56453589230E-04
  9.80077992884E-04  1.00428591931E-03  1.02909178151E-03  1.05451034852E-03
  1.08055675413E-03  1.10724650595E-03  1.13459549465E-03  1.16262000337E-03
  1.19133671745E-03  1.22076273437E-03  1.25091557391E-03  1.28181318859E-03
  1.31347397435E-03  1.34591678151E-03  1.37916092602E-03  1.41322620089E-03
  1.44813288805E-03  1.48390177038E-03  1.52055414411E-03  1.55811183147E-03
  1.59659719371E-03  1.63603314439E-03  1.67644316306E-03  1.71785130919E-03
  1.76028223653E-03  1.80376120777E-03  1.84831410960E-03  1.89396746811E-03
  1.94074846457E-03  1.98868495164E-03  2.03780546995E-03  2.08813926506E-03
  2.13971630490E-03  2.19256729764E-03  2.24672370989E-03  2.30221778552E-03
  2.35908256482E-03  2.41735190417E-03  2.47706049621E-03  2.53824389046E-03
  2.60093851456E-03  2.66518169587E-03  2.73101168376E-03  2.79846767234E-03
  2.86758982385E-03  2.93841929250E-03  3.01099824903E-03  3.08536990578E-03
  3.16157854245E-03  3.23966953245E-03  3.31968936990E-03  3.40168569734E-03
  3.48570733406E-03  3.57180430521E-03  3.66002787155E-03  3.75043055998E-03
  3.84306619481E-03  3.93798992982E-03  4.03525828109E-03  4.13492916063E-03
  4.23706191090E-03  4.34171734010E-03  4.44895775840E-03  4.55884701503E-03
  4.67145053630E-03  4.78683536455E-03  4.90507019805E-03  5.02622543194E-03
  5.15037320011E-03  5.27758741816E-03  5.40794382738E-03  5.54152003992E-03
  5.67839558491E-03  5.81865195585E-03  5.96237265916E-03  6.10964326384E-03
  6.26055145246E-03  6.41518707334E-03  6.57364219405E-03  6.73601115624E-03
  6.90239063180E-03  7.07287968041E-03  7.24757980851E-03  7.42659502978E-03
  7.61003192702E-03  7.79799971562E-03  7.99061030859E-03  8.18797838321E-03
  8.39022144928E-03  8.59745991908E-03  8.80981717908E-03  9.02741966340E-03
  9.25039692909E-03  9.47888173323E-03  9.71301011205E-03  9.95292146181E-03
  1.01987586219E-02  1.04506679599E-02  1.07087994585E-02  1.09733068051E-02
  1.12443474832E-02  1.15220828660E-02  1.18066783128E-02  1.20983032672E-02
  1.23971313579E-02  1.27033405024E-02  1.30171130128E-02  1.33386357042E-02
  1.36681000061E-02  1.40057020763E-02  1.43516429175E-02  1.47061284976E-02
  1.50693698715E-02  1.54415833073E-02  1.58229904150E-02  1.62138182783E-02
  1.66142995897E-02  1.70246727896E-02  1.74451822075E-02  1.78760782080E-02
  1.83176173398E-02  1.87700624881E-02  1.92336830315E-02  1.97087550024E-02
  2.01955612510E-02  2.06943916139E-02  2.12055430867E-02  2.17293200010E-02
  2.22660342050E-02  2.28160052499E-02  2.33795605795E-02  2.39570357258E-02
  2.45487745083E-02  2.51551292386E-02  2.57764609308E-02  2.64131395158E-02
  2.70655440618E-02  2.77340630002E-02  2.84190943563E-02  2.91210459869E-02
  2.98403358228E-02  3.05773921176E-02  3.13326537029E-02  3.21065702493E-02
  3.28996025345E-02  3.37122227171E-02  3.45449146182E-02  3.53981740093E-02
  3.62725089073E-02  3.71684398773E-02  3.80865003423E-02  3.90272369007E-02
  3.99912096522E-02  4.09789925306E-02  4.19911736461E-02  4.30283556352E-02
  4.40911560194E-02  4.51802075730E-02  4.62961587001E-02  4.74396738200E-02
  4.86114337633E-02  4.98121361773E-02  5.10424959409E-02  5.23032455906E-02
  5.35951357567E-02  5.49189356099E-02  5.62754333195E-02  5.76654365224E-02
  5.90897728045E-02  6.05492901928E-02  6.20448576606E-02  6.35773656448E-02
  6.51477265762E-02  6.67568754227E-02  6.84057702456E-02  7.00953927707E-02
  7.18267489721E-02  7.36008696717E-02  7.54188111526E-02  7.72816557881E-02
  7.91905126860E-02  8.11465183494E-02  8.31508373526E-02  8.52046630352E-02
  8.73092182122E-02  8.94657559020E-02  9.16755600728E-02  9.39399464066E-02
  9.62602630829E-02  9.86378915810E-02  1.01074247503E-01  1.03570781416E-01
  1.06128979717E-01  1.08750365516E-01  1.11436499545E-01  1.14188981083E-01
  1.17009448916E-01  1.19899582304E-01  1.22861101987E-01  1.25895771206E-01
  1.29005396755E-01  1.32191830055E-01  1.35456968257E-01  1.38802755373E-01
  1.42231183431E-01  1.45744293662E-01  1.49344177715E-01  1.53032978905E-01
  1.56812893484E-01  1.60686171953E-01  1.64655120400E-01  1.68722101874E-01
  1.72889537790E-01  1.77159909374E-01  1.81535759135E-01  1.86019692386E-01
  1.90614378788E-01  1.95322553944E-01  2.00147021026E-01  2.05090652446E-01
  2.10156391561E-01  2.15347254433E-01  2.20666331617E-01  2.26116790008E-01
  2.31701874721E-01  2.37424911027E-01  2.43289306329E-01  2.49298552195E-01
  2.55456226435E-01  2.61765995228E-01  2.68231615310E-01  2.74856936208E-01
  2.81645902532E-01  2.88602556325E-01  2.95731039466E-01  3.03035596141E-01
  3.10520575365E-01  3.18190433577E-01  3.26049737286E-01  3.34103165797E-01
  3.42355513993E-01  3.50811695188E-01  3.59476744059E-01  3.68355819638E-01
  3.77454208383E-01  3.86777327330E-01  3.96330727315E-01  4.06120096279E-01
  4.16151262657E-01  4.26430198845E-01  4.36963024757E-01  4.47756011468E-01
  4.58815584951E-01  4.70148329900E-01  4.81760993648E-01  4.93660490191E-01
  5.05853904299E-01  5.18348495735E-01  5.31151703580E-01  5.44271150658E-01
  5.57714648079E-01  5.71490199887E-01  5.85606007824E-01  6.00070476218E-01
  6.14892216980E-01  6.30080054740E-01  6.45643032092E-01  6.61590414984E-01
  6.77931698234E-01  6.94676611181E-01  7.11835123477E-01  7.29417451027E-01
  7.47434062067E-01  7.65895683400E-01  7.84813306780E-01  8.04198195458E-01
  8.24061890885E-01  8.44416219590E-01  8.65273300214E-01  8.86645550730E-01
  9.08545695833E-01  9.30986774520E-01  9.53982147850E-01  9.77545506902E-01
  1.00169088092E+00  1.02643264568E+00  1.05178553203E+00  1.07776463467E+00
  1.10438542115E+00  1.13166374105E+00  1.15961583545E+00  1.18825834659E+00
  1.21760832775E+00  1.24768325345E+00  1.27850102981E+00  1.31008000524E+00
  1.34243898137E+00  1.37559722421E+00  1.40957447565E+00  1.44439096520E+00
  1.48006742204E+00  1.51662508736E+00  1.55408572702E+00  1.59247164448E+00
  1.63180569410E+00  1.67211129474E+00  1.71341244372E+00  1.75573373108E+00
  1.79910035424E+00  1.84353813299E+00  1.88907352487E+00
  </PP_RAB>
</PP_MESH>


<PP_LOCAL>
 -1.80683257398E+01 -1.80683262306E+01 -1.80683266862E+01 -1.80683271064E+01
 -1.80683274907E+01 -1.80683278388E+01 -1.80683281502E+01 -1.80683284244E+01
 -1.80683286607E+01 -1.80683288585E+01 -1.80683290171E+01 -1.80683291358E+01
 -1.80683292136E+01 -1.80683292497E+01 -1.80683292430E+01 -1.80683291926E+01
 -1.80683290972E+01 -1.80683289557E+01 -1.80683287667E+01 -1.80683285289E+01
 -1.80683282406E+01 -1.80683279005E+01 -1.80683275067E+01 -1.80683270574E+01
 -1.80683265508E+01 -1.80683259849E+01 -1.80683253573E+01 -1.80683246660E+01
 -1.80683239085E+01 -1.80683230822E+01 -1.80683221844E+01 -1.80683212124E+01
 -1.80683201630E+01 -1.80683190331E+01 -1.80683178195E+01 -1.80683165184E+01
 -1.80683151262E+01 -1.80683136391E+01 -1.80683120527E+01 -1.80683103629E+01
 -1.80683085649E+01 -1.80683066539E+01 -1.80683046250E+01 -1.80683024726E+01
 -1.80683001912E+01 -1.80682977747E+01 -1.80682952171E+01 -1.80682925117E+01
 -1.80682896515E+01 -1.80682866294E+01 -1.80682834376E+01 -1.80682800682E+01
 -1.80682765127E+01 -1.80682727622E+01 -1.80682688074E+01 -1.80682646385E+01
 -1.80682602451E+01 -1.80682556164E+01 -1.80682507411E+01 -1.80682456072E+01
 -1.80682402020E+01 -1.80682345125E+01 -1.80682285247E+01 -1.80682222240E+01
 -1.80682155951E+01 -1.80682086220E+01 -1.80682012877E+01 -1.80681935745E+01
 -1.80681854637E+01 -1.80681769357E+01 -1.80681679701E+01 -1.80681585451E+01
 -1.80681486381E+01 -1.80681382253E+01 -1.80681272816E+01 -1.80681157807E+01
 -1.80681036951E+01 -1.80680909957E+01 -1.80680776522E+01 -1.80680636325E+01
 -1.80680489031E+01 -1.80680334288E+01 -1.80680171725E+01 -1.80680000954E+01
 -1.80679821566E+01 -1.80679633134E+01 -1.80679435207E+01 -1.80679227313E+01
 -1.80679008956E+01 -1.80678779615E+01 -1.80678538743E+01 -1.80678285766E+01
 -1.80678020082E+01 -1.80677741057E+01 -1.80677448028E+01 -1.80677140296E+01
 -1.80676817129E+01 -1.80676477758E+01 -1.80676121377E+01 -1.80675747136E+01
 -1.80675354148E+01 -1.80674941477E+01 -1.80674508144E+01 -1.80674053118E+01
 -1.80673575320E+01 -1.80673073615E+01 -1.80672546812E+01 -1.80671993662E+01
 -1.80671412852E+01 -1.80670803005E+01 -1.80670162675E+01 -1.80669490345E+01
 -1.80668784423E+01 -1.80668043236E+01 -1.80667265031E+01 -1.80666447964E+01
 -1.80665590104E+01 -1.80664689423E+01 -1.80663743791E+01 -1.80662750973E+01
 -1.80661708627E+01 -1.80660614290E+01 -1.80659465382E+01 -1.80658259193E+01
 -1.80656992880E+01 -1.80655663461E+01 -1.80654267805E+01 -1.80652802629E+01
 -1.80651264488E+01 -1.80649649768E+01 -1.80647954676E+01 -1.80646175237E+01
 -1.80644307276E+01 -1.80642346419E+01 -1.80640288074E+01 -1.80638127428E+01
 -1.80635859431E+01 -1.80633478789E+01 -1.80630979949E+01 -1.80628357090E+01
 -1.80625604107E+01 -1.80622714599E+01 -1.80619681859E+01 -1.80616498852E+01
 -1.80613158206E+01 -1.80609652195E+01 -1.80605972720E+01 -1.80602111296E+01
 -1.80598059031E+01 -1.80593806609E+01 -1.80589344269E+01 -1.80584661788E+01
 -1.80579748458E+01 -1.80574593064E+01 -1.80569183863E+01 -1.80563508559E+01
 -1.80557554278E+01 -1.80551307546E+01 -1.80544754260E+01 -1.80537879660E+01
 -1.80530668304E+01 -1.80523104036E+01 -1.80515169956E+01 -1.80506848390E+01
 -1.80498120854E+01 -1.80488968027E+01 -1.80479369707E+01 -1.80469304782E+01
 -1.80458751193E+01 -1.80447685887E+01 -1.80436084790E+01 -1.80423922753E+01
 -1.80411173519E+01 -1.80397809676E+01 -1.80383802608E+01 -1.80369122455E+01
 -1.80353738058E+01 -1.80337616916E+01 -1.80320725125E+01 -1.80303027332E+01
 -1.80284486679E+01 -1.80265064739E+01 -1.80244721463E+01 -1.80223415114E+01
 -1.80201102203E+01 -1.80177737421E+01 -1.80153273567E+01 -1.80127661474E+01
 -1.80100849931E+01 -1.80072785599E+01 -1.80043412922E+01 -1.80012674036E+01
 -1.79980508667E+01 -1.79946854023E+01 -1.79911644682E+01 -1.79874812466E+01
 -1.79836286307E+01 -1.79795992102E+01 -1.79753852554E+01 -1.79709786996E+01
 -1.79663711205E+01 -1.79615537192E+01 -1.79565172970E+01 -1.79512522305E+01
 -1.79457484432E+01 -1.79399953749E+01 -1.79339819473E+01 -1.79276965266E+01
 -1.79211268807E+01 -1.79142601335E+01 -1.79070827130E+01 -1.78996232291E+01
 -1.78917596324E+01 -1.78835390471E+01 -1.78749444664E+01 -1.78659578364E+01
 -1.78565599621E+01 -1.78467304037E+01 -1.78364473630E+01 -1.78256875579E+01
 -1.78144260846E+01 -1.78026362676E+01 -1.77902894943E+01 -1.77773550349E+01
 -1.77637998464E+01 -1.77495883589E+01 -1.77346822431E+01 -1.77190401597E+01
 -1.77026174868E+01 -1.76853660268E+01 -1.76672336908E+01 -1.76481641593E+01
 -1.76280965198E+01 -1.76069648789E+01 -1.75846979505E+01 -1.75612186187E+01
 -1.75364434761E+01 -1.75102823377E+01 -1.74826377322E+01 -1.74534043721E+01
 -1.74224686036E+01 -1.73897078421E+01 -1.73549899937E+01 -1.73181728710E+01
 -1.72791036067E+01 -1.72376180742E+01 -1.71935403239E+01 -1.71466820448E+01
 -1.70968420662E+01 -1.70438059132E+01 -1.69873454336E+01 -1.69272185165E+01
 -1.68631689257E+01 -1.67949262747E+01 -1.67222061717E+01 -1.66447105693E+01
 -1.65621283549E+01 -1.64741362242E+01 -1.63803998803E+01 -1.62805756094E+01
 -1.61743122831E+01 -1.60612538441E+01 -1.59410423309E+01 -1.58133215019E+01
 -1.56777411163E+01 -1.55339619301E+01 -1.53816614579E+01 -1.52205405496E+01
 -1.50503308134E+01 -1.48708029084E+01 -1.46817757036E+01 -1.44831262779E+01
 -1.42748006964E+01 -1.40568254587E+01 -1.38293194573E+01 -1.35925062211E+01
 -1.33467261371E+01 -1.30924482522E+01 -1.28302811458E+01 -1.25609822377E+01
 -1.22854647557E+01 -1.20048014251E+01 -1.17202237768E+01 -1.14331157899E+01
 -1.11450004169E+01 -1.08575173919E+01 -1.05723906273E+01 -1.02913835213E+01
 -1.00162406794E+01 -9.74861503441E+00 -9.48998026472E+00 -9.24140420473E+00
 -9.00385759211E+00 -8.77760377424E+00 -8.56234716725E+00 -8.35713114930E+00
 -8.16034693690E+00 -7.96986621437E+00 -7.78337439292E+00 -7.59901455368E+00
 -7.41649750477E+00 -7.23771802562E+00 -7.06325006009E+00 -6.89298913252E+00
 -6.72683342015E+00 -6.56468365843E+00 -6.40644305506E+00 -6.25201721131E+00
 -6.10131404949E+00 -5.95424374551E+00 -5.81071866575E+00 -5.67065330757E+00
 -5.53396424293E+00 -5.40057006460E+00 -5.27039133464E+00 -5.14335053496E+00
 -5.01937201949E+00 -4.89838196800E+00 -4.78030834138E+00 -4.66508083811E+00
 -4.55263085203E+00 -4.44289143124E+00 -4.33579723799E+00 -4.23128450974E+00
 -4.12929102101E+00 -4.02975604638E+00 -3.93262032420E+00 -3.83782602138E+00
 -3.74531669887E+00 -3.65503727807E+00 -3.56693400806E+00 -3.48095443354E+00
 -3.39704736366E+00 -3.31516284147E+00 -3.23525211425E+00 -3.15726760442E+00
 -3.08116288125E+00 -3.00689263321E+00 -2.93441264098E+00 -2.86367975112E+00
 -2.79465185042E+00 -2.72728784075E+00 -2.66154761467E+00 -2.59739203149E+00
 -2.53478289401E+00 -2.47368292574E+00 -2.41405574875E+00 -2.35586586196E+00
 -2.29907862004E+00 -2.24366021279E+00 -2.18957764496E+00 -2.13679871666E+00
 -2.08529200415E+00 -2.03502684118E+00 -1.98597330065E+00 -1.93810217688E+00
 -1.89138496817E+00 -1.84579385983E+00 -1.80130170765E+00 -1.75788202172E+00
 -1.71550895063E+00 -1.67415726616E+00 -1.63380234816E+00 -1.59442016996E+00
 -1.55598728405E+00 -1.51848080809E+00 -1.48187841133E+00 -1.44615830129E+00
 -1.41129921078E+00 -1.37728038526E+00 -1.34408157047E+00 -1.31168300036E+00
 -1.28006538535E+00 -1.24920990080E+00 -1.21909817585E+00 -1.18971228248E+00
 -1.16103472477E+00 -1.13304842859E+00 -1.10573673132E+00 -1.07908337203E+00
 -1.05307248174E+00 -1.02768857396E+00 -1.00291653553E+00 -9.78741617577E-01
 -9.55149426737E-01 -9.32125916597E-01 -9.09657379327E-01 -8.87730437520E-01
 -8.66332036226E-01 -8.45449435177E-01 -8.25070201207E-01 -8.05182200846E-01
 -7.85773593097E-01 -7.66832822384E-01 -7.48348611675E-01 -7.30309955768E-01
 -7.12706114734E-01 -6.95526607528E-01 -6.78761205746E-01 -6.62399927536E-01
 -6.46433031654E-01 -6.30851011666E-01 -6.15644590286E-01 -6.00804713854E-01
 -5.86322546944E-01 -5.72189467107E-01 -5.58397059731E-01 -5.44937113039E-01
 -5.31801613193E-01 -5.18982739527E-01 -5.06472859888E-01 -4.94264526093E-01
 -4.82350469497E-01 -4.70723596659E-01 -4.59376985127E-01 -4.48303879308E-01
 -4.37497686452E-01 -4.26951972726E-01 -4.16660459379E-01 -4.06617019010E-01
 -3.96815671914E-01 -3.87250582525E-01 -3.77916055943E-01 -3.68806534540E-01
 -3.59916594652E-01 -3.51240943352E-01 -3.42774415294E-01 -3.34511969644E-01
 -3.26448687073E-01 -3.18579766832E-01 -3.10900523892E-01 -3.03406386154E-01
 -2.96092891728E-01 -2.88955686277E-01 -2.81990520423E-01 -2.75193247217E-01
 -2.68559819671E-01 -2.62086288348E-01 -2.55768799013E-01 -2.49603590332E-01
 -2.43586991638E-01 -2.37715420746E-01 -2.31985381815E-01 -2.26393463272E-01
 -2.20936335778E-01 -2.15610750247E-01 -2.10413535910E-01 -2.05341598429E-01
 -2.00391918053E-01 -1.95561547822E-01 -1.90847611810E-01 -1.86247303416E-01
 -1.81757883689E-01 -1.77376679700E-01 -1.73101082951E-01 -1.68928547820E-01
 -1.64856590046E-01 -1.60882785250E-01 -1.57004767493E-01 -1.53220227865E-01
 -1.49526913111E-01 -1.45922624291E-01 -1.42405215469E-01 -1.38972592436E-01
 -1.35622711463E-01 -1.32353578084E-01 -1.29163245910E-01
</PP_LOCAL>


<PP_NONLOCAL>
  <PP_BETA>
    1    0             Beta    L
   384
  8.48825782805E-03  8.69791779640E-03  8.91275636597E-03  9.13290144820E-03
  9.35848411712E-03  9.58963868140E-03  9.82650276652E-03  1.00692173980E-02
  1.03179270846E-02  1.05727799045E-02  1.08339275933E-02  1.11015256346E-02
  1.13757333525E-02  1.16567140064E-02  1.19446348882E-02  1.22396674220E-02
  1.25419872660E-02  1.28517744173E-02  1.31692133189E-02  1.34944929696E-02
  1.38278070366E-02  1.41693539706E-02  1.45193371242E-02  1.48779648727E-02
  1.52454507385E-02  1.56220135180E-02  1.60078774119E-02  1.64032721588E-02
  1.68084331718E-02  1.72236016790E-02  1.76490248667E-02  1.80849560269E-02
  1.85316547082E-02  1.89893868698E-02  1.94584250404E-02  1.99390484803E-02
  2.04315433478E-02  2.09362028692E-02  2.14533275137E-02  2.19832251725E-02