
     Program PWSCF v.6.5 starts on  7Mar2022 at 11:52:11 

     This program is part of the open-source Quantum ESPRESSO suite
     for quantum simulation of materials; please cite
         "P. Giannozzi et al., J. Phys.:Condens. Matter 21 395502 (2009);
         "P. Giannozzi et al., J. Phys.:Condens. Matter 29 465901 (2017);
          URL http://www.quantum-espresso.org", 
     in publications or presentations arising from this work. More details at
     http://www.quantum-espresso.org/quote

     Parallel version (MPI), running on     8 processors

     MPI processes distributed on     1 nodes
     K-points division:     npool     =       8
     Waiting for input...
     Reading input from standard input
Warning: card &IONS ignored
Warning: card / ignored
Warning: card &CELL ignored
Warning: card / ignored

     Current dimensions of program PWSCF are:
     Max number of different atomic species (ntypx) = 10
     Max number of k-points (npk) =  40000
     Max angular momentum in pseudopotentials (lmaxx) =  3
               file b.cpi.UPF: wavefunction(s)  3d 4f renormalized
               file n.cpi.UPF: wavefunction(s)  3d 4f renormalized

     Subspace diagonalization in iterative solution of the eigenvalue problem:
     a serial algorithm will be used

 
     G-vector sticks info
     --------------------
     sticks:   dense  smooth     PW     G-vecs:    dense   smooth      PW
     Sum         433     433    151                19375    19375    3645
 


     bravais-lattice index     =            4
     lattice parameter (alat)  =       4.7319  a.u.
     unit-cell volume          =     244.0890 (a.u.)^3
     number of atoms/cell      =            4
     number of atomic types    =            2
     number of electrons       =        16.00
     number of Kohn-Sham states=           16
     kinetic-energy cutoff     =      70.0000  Ry
     charge density cutoff     =     280.0000  Ry
     convergence threshold     =      1.0E-10
     mixing beta               =       0.7000
     number of iterations used =            8  plain     mixing
     Exchange-correlation= SLA  PZ   NOGX NOGC
                           (   1   1   0   0   0   0   0)

     celldm(1)=   4.731874  celldm(2)=   0.000000  celldm(3)=   2.660224
     celldm(4)=   0.000000  celldm(5)=   0.000000  celldm(6)=   0.000000

     crystal axes: (cart. coord. in units of alat)
               a(1) = (   1.000000   0.000000   0.000000 )  
               a(2) = (  -0.500000   0.866025   0.000000 )  
               a(3) = (   0.000000   0.000000   2.660224 )  

     reciprocal axes: (cart. coord. in units 2 pi/alat)
               b(1) = (  1.000000  0.577350  0.000000 )  
               b(2) = (  0.000000  1.154701  0.000000 )  
               b(3) = (  0.000000  0.000000  0.375908 )  


     PseudoPot. # 1 for B  read from file:
     ./b.cpi.UPF
     MD5 check sum: aadced629ac320abbac2d4088521b25e
     Pseudo is Norm-conserving + core correction, Zval =  3.0
     Generated by new atomic code, or converted to UPF format
     Using radial grid of  453 points,  3 beta functions with: 
                l(1) =   0
                l(2) =   1
                l(3) =   2

     PseudoPot. # 2 for N  read from file:
     ./n.cpi.UPF
     MD5 check sum: ff6dad263d6aed986b71703111ab3f52
     Pseudo is Norm-conserving, Zval =  5.0
     Generated by new atomic code, or converted to UPF format
     Using radial grid of  467 points,  3 beta functions with: 
                l(1) =   0
                l(2) =   1
                l(3) =   2

     atomic species   valence    mass     pseudopotential
        B              3.00    10.81100     B ( 1.00)
        N              5.00    14.00700     N ( 1.00)

     24 Sym. Ops., with inversion, found (12 have fractional translation)


                                    s                        frac. trans.

      isym =  1     identity                                     

 cryst.   s( 1) = (     1          0          0      )
                  (     0          1          0      )
                  (     0          0          1      )

 cart.    s( 1) = (  1.0000000  0.0000000  0.0000000 )
                  (  0.0000000  1.0000000  0.0000000 )
                  (  0.0000000  0.0000000  1.0000000 )


      isym =  2     180 deg rotation - cart. axis [0,0,1]        

 cryst.   s( 2) = (    -1          0          0      )    f =(  0.0000000 )
                  (     0         -1          0      )       (  0.0000000 )
                  (     0          0          1      )       (  0.5000000 )

 cart.    s( 2) = ( -1.0000000  0.0000000  0.0000000 )    f =(  0.0000000 )
                  (  0.0000000 -1.0000000  0.0000000 )       (  0.0000000 )
                  (  0.0000000  0.0000000  1.0000000 )       (  1.3301118 )


      isym =  3     180 deg rotation - cart. axis [0,1,0]        

 cryst.   s( 3) = (    -1          0          0      )    f =(  0.0000000 )
                  (     1          1          0      )       (  0.0000000 )
                  (     0          0         -1      )       ( -0.5000000 )

 cart.    s( 3) = ( -1.0000000  0.0000000  0.0000000 )    f =(  0.0000000 )
                  (  0.0000000  1.0000000  0.0000000 )       (  0.0000000 )
                  (  0.0000000  0.0000000 -1.0000000 )       ( -1.3301118 )


      isym =  4     180 deg rotation - cart. axis [1,0,0]        

 cryst.   s( 4) = (     1          0          0      )
                  (    -1         -1          0      )
                  (     0          0         -1      )

 cart.    s( 4) = (  1.0000000  0.0000000  0.0000000 )
                  (  0.0000000 -1.0000000  0.0000000 )
                  (  0.0000000  0.0000000 -1.0000000 )


      isym =  5      60 deg rotation - cryst. axis [0,0,1]       

 cryst.   s( 5) = (     1          1          0      )    f =(  0.0000000 )
                  (    -1          0          0      )       (  0.0000000 )
                  (     0          0          1      )       (  0.5000000 )

 cart.    s( 5) = (  0.5000000 -0.8660254  0.0000000 )    f =(  0.0000000 )
                  (  0.8660254  0.5000000  0.0000000 )       (  0.0000000 )
                  (  0.0000000  0.0000000  1.0000000 )       (  1.3301118 )


      isym =  6      60 deg rotation - cryst. axis [0,0,-1]      

 cryst.   s( 6) = (     0         -1          0      )    f =(  0.0000000 )
                  (     1          1          0      )       ( -0.0000000 )
                  (     0          0          1      )       (  0.5000000 )

 cart.    s( 6) = (  0.5000000  0.8660254  0.0000000 )    f =(  0.0000000 )
                  ( -0.8660254  0.5000000  0.0000000 )       ( -0.0000000 )
                  (  0.0000000  0.0000000  1.0000000 )       (  1.3301118 )


      isym =  7     120 deg rotation - cryst. axis [0,0,1]       

 cryst.   s( 7) = (     0          1          0      )
                  (    -1         -1          0      )
                  (     0          0          1      )

 cart.    s( 7) = ( -0.5000000 -0.8660254  0.0000000 )
                  (  0.8660254 -0.5000000  0.0000000 )
                  (  0.0000000  0.0000000  1.0000000 )


      isym =  8     120 deg rotation - cryst. axis [0,0,-1]      

 cryst.   s( 8) = (    -1         -1          0      )
                  (     1          0          0      )
                  (     0          0          1      )

 cart.    s( 8) = ( -0.5000000  0.8660254  0.0000000 )
                  ( -0.8660254 -0.5000000  0.0000000 )
                  (  0.0000000  0.0000000  1.0000000 )


      isym =  9     180 deg rotation - cryst. axis [1,-1,0]      

 cryst.   s( 9) = (     0         -1          0      )    f =(  0.0000000 )
                  (    -1          0          0      )       (  0.0000000 )
                  (     0          0         -1      )       ( -0.5000000 )

 cart.    s( 9) = (  0.5000000 -0.8660254  0.0000000 )    f =(  0.0000000 )
                  ( -0.8660254 -0.5000000  0.0000000 )       (  0.0000000 )
                  (  0.0000000  0.0000000 -1.0000000 )       ( -1.3301118 )


      isym = 10     180 deg rotation - cryst. axis [2,1,0]       

 cryst.   s(10) = (     1          1          0      )    f =(  0.0000000 )
                  (     0         -1          0      )       ( -0.0000000 )
                  (     0          0         -1      )       ( -0.5000000 )

 cart.    s(10) = (  0.5000000  0.8660254  0.0000000 )    f =(  0.0000000 )
                  (  0.8660254 -0.5000000  0.0000000 )       ( -0.0000000 )
                  (  0.0000000  0.0000000 -1.0000000 )       ( -1.3301118 )


      isym = 11     180 deg rotation - cryst. axis [0,1,0]       

 cryst.   s(11) = (    -1         -1          0      )
                  (     0          1          0      )
                  (     0          0         -1      )

 cart.    s(11) = ( -0.5000000 -0.8660254  0.0000000 )
                  ( -0.8660254  0.5000000  0.0000000 )
                  (  0.0000000  0.0000000 -1.0000000 )


      isym = 12     180 deg rotation - cryst. axis [1,1,0]       

 cryst.   s(12) = (     0          1          0      )
                  (     1          0          0      )
                  (     0          0         -1      )

 cart.    s(12) = ( -0.5000000  0.8660254  0.0000000 )
                  (  0.8660254  0.5000000  0.0000000 )
                  (  0.0000000  0.0000000 -1.0000000 )


      isym = 13     inversion                                    

 cryst.   s(13) = (    -1          0          0      )
                  (     0         -1          0      )
                  (     0          0         -1      )

 cart.    s(13) = ( -1.0000000  0.0000000  0.0000000 )
                  (  0.0000000 -1.0000000  0.0000000 )
                  (  0.0000000  0.0000000 -1.0000000 )


      isym = 14     inv. 180 deg rotation - cart. axis [0,0,1]   

 cryst.   s(14) = (     1          0          0      )    f =(  0.0000000 )
                  (     0          1          0      )       (  0.0000000 )
                  (     0          0         -1      )       ( -0.5000000 )

 cart.    s(14) = (  1.0000000  0.0000000  0.0000000 )    f =(  0.0000000 )
                  (  0.0000000  1.0000000  0.0000000 )       (  0.0000000 )
                  (  0.0000000  0.0000000 -1.0000000 )       ( -1.3301118 )


      isym = 15     inv. 180 deg rotation - cart. axis [0,1,0]   

 cryst.   s(15) = (     1          0          0      )    f =(  0.0000000 )
                  (    -1         -1          0      )       (  0.0000000 )
                  (     0          0          1      )       (  0.5000000 )

 cart.    s(15) = (  1.0000000  0.0000000  0.0000000 )    f =(  0.0000000 )
                  (  0.0000000 -1.0000000  0.0000000 )       (  0.0000000 )
                  (  0.0000000  0.0000000  1.0000000 )       (  1.3301118 )


      isym = 16     inv. 180 deg rotation - cart. axis [1,0,0]   

 cryst.   s(16) = (    -1          0          0      )
                  (     1          1          0      )
                  (     0          0          1      )

 cart.    s(16) = ( -1.0000000  0.0000000  0.0000000 )
                  (  0.0000000  1.0000000  0.0000000 )
                  (  0.0000000  0.0000000  1.0000000 )


      isym = 17     inv.  60 deg rotation - cryst. axis [0,0,1]  

 cryst.   s(17) = (    -1         -1          0      )    f =(  0.0000000 )
                  (     1          0          0      )       (  0.0000000 )
                  (     0          0         -1      )       ( -0.5000000 )

 cart.    s(17) = ( -0.5000000  0.8660254  0.0000000 )    f =(  0.0000000 )
                  ( -0.8660254 -0.5000000  0.0000000 )       (  0.0000000 )
                  (  0.0000000  0.0000000 -1.0000000 )       ( -1.3301118 )


      isym = 18     inv.  60 deg rotation - cryst. axis [0,0,-1] 

 cryst.   s(18) = (     0          1          0      )    f =(  0.0000000 )
                  (    -1         -1          0      )       ( -0.0000000 )
                  (     0          0         -1      )       ( -0.5000000 )

 cart.    s(18) = ( -0.5000000 -0.8660254  0.0000000 )    f =(  0.0000000 )
                  (  0.8660254 -0.5000000  0.0000000 )       ( -0.0000000 )
                  (  0.0000000  0.0000000 -1.0000000 )       ( -1.3301118 )


      isym = 19     inv. 120 deg rotation - cryst. axis [0,0,1]  

 cryst.   s(19) = (     0         -1          0      )
                  (     1          1          0      )
                  (     0          0         -1      )

 cart.    s(19) = (  0.5000000  0.8660254  0.0000000 )
                  ( -0.8660254  0.5000000  0.0000000 )
                  (  0.0000000  0.0000000 -1.0000000 )


      isym = 20     inv. 120 deg rotation - cryst. axis [0,0,-1] 

 cryst.   s(20) = (     1          1          0      )
                  (    -1          0          0      )
                  (     0          0         -1      )

 cart.    s(20) = (  0.5000000 -0.8660254  0.0000000 )
                  (  0.8660254  0.5000000  0.0000000 )
                  (  0.0000000  0.0000000 -1.0000000 )


      isym = 21     inv. 180 deg rotation - cryst. axis [1,-1,0] 

 cryst.   s(21) = (     0          1          0      )    f =(  0.0000000 )
                  (     1          0          0      )       (  0.0000000 )
                  (     0          0          1      )       (  0.5000000 )

 cart.    s(21) = ( -0.5000000  0.8660254  0.0000000 )    f =( -0.0000000 )
                  (  0.8660254  0.5000000  0.0000000 )       (  0.0000000 )
                  (  0.0000000  0.0000000  1.0000000 )       (  1.3301118 )


      isym = 22     inv. 180 deg rotation - cryst. axis [2,1,0]  

 cryst.   s(22) = (    -1         -1          0      )    f =(  0.0000000 )
                  (     0          1          0      )       ( -0.0000000 )
                  (     0          0          1      )       (  0.5000000 )

 cart.    s(22) = ( -0.5000000 -0.8660254  0.0000000 )    f =(  0.0000000 )
                  ( -0.8660254  0.5000000  0.0000000 )       ( -0.0000000 )
                  (  0.0000000  0.0000000  1.0000000 )       (  1.3301118 )


      isym = 23     inv. 180 deg rotation - cryst. axis [0,1,0]  

 cryst.   s(23) = (     1          1          0      )
                  (     0         -1          0      )
                  (     0          0          1      )

 cart.    s(23) = (  0.5000000  0.8660254  0.0000000 )
                  (  0.8660254 -0.5000000  0.0000000 )
                  (  0.0000000  0.0000000  1.0000000 )


      isym = 24     inv. 180 deg rotation - cryst. axis [1,1,0]  

 cryst.   s(24) = (     0         -1          0      )
                  (    -1          0          0      )
                  (     0          0          1      )

 cart.    s(24) = (  0.5000000 -0.8660254  0.0000000 )
                  ( -0.8660254 -0.5000000  0.0000000 )
                  (  0.0000000  0.0000000  1.0000000 )


     point group D_6h(6/mmm)
     there are 12 classes
     the character table:

       E     2C6   2C3   C2    3C2'  3C2'' i     2S3   2S6   s_h   3s_d  3s_v 
A_1g   1.00  1.00  1.00  1.00  1.00  1.00  1.00  1.00  1.00  1.00  1.00  1.00
A_2g   1.00  1.00  1.00  1.00 -1.00 -1.00  1.00  1.00  1.00  1.00 -1.00 -1.00
B_1g   1.00 -1.00  1.00 -1.00  1.00 -1.00  1.00 -1.00  1.00 -1.00  1.00 -1.00
B_2g   1.00 -1.00  1.00 -1.00 -1.00  1.00  1.00 -1.00  1.00 -1.00 -1.00  1.00
E_1g   2.00  1.00 -1.00 -2.00  0.00  0.00  2.00  1.00 -1.00 -2.00  0.00  0.00
E_2g   2.00 -1.00 -1.00  2.00  0.00  0.00  2.00 -1.00 -1.00  2.00  0.00  0.00
A_1u   1.00  1.00  1.00  1.00  1.00  1.00 -1.00 -1.00 -1.00 -1.00 -1.00 -1.00
A_2u   1.00  1.00  1.00  1.00 -1.00 -1.00 -1.00 -1.00 -1.00 -1.00  1.00  1.00
B_1u   1.00 -1.00  1.00 -1.00  1.00 -1.00 -1.00  1.00 -1.00  1.00 -1.00  1.00
B_2u   1.00 -1.00  1.00 -1.00 -1.00  1.00 -1.00  1.00 -1.00  1.00  1.00 -1.00
E_1u   2.00  1.00 -1.00 -2.00  0.00  0.00 -2.00 -1.00  1.00  2.00  0.00  0.00
E_2u   2.00 -1.00 -1.00  2.00  0.00  0.00 -2.00  1.00  1.00 -2.00  0.00  0.00

     the symmetry operations in each class and the name of the first element:

     E        1
          identity                                               
     2C6      5    6
           60 deg rotation - cryst. axis [0,0,1]                 
     2C3      7    8
          120 deg rotation - cryst. axis [0,0,1]                 
     C2       2
          180 deg rotation - cart. axis [0,0,1]                  
     3C2'     4   12   11
          180 deg rotation - cart. axis [1,0,0]                  
     3C2''    3    9   10
          180 deg rotation - cart. axis [0,1,0]                  
     i       13
          inversion                                              
     2S3     17   18
          inv.  60 deg rotation - cryst. axis [0,0,1]            
     2S6     19   20
          inv. 120 deg rotation - cryst. axis [0,0,1]            
     s_h     14
          inv. 180 deg rotation - cart. axis [0,0,1]             
     3s_d    16   24   23
          inv. 180 deg rotation - cart. axis [1,0,0]             
     3s_v    15   21   22
          inv. 180 deg rotation - cart. axis [0,1,0]             

   Cartesian axes

     site n.     atom                  positions (alat units)
         1           B   tau(   1) = (  -0.0000000   0.5773503   0.6650559  )
         2           B   tau(   2) = (   0.5000000   0.2886751   1.9951677  )
         3           N   tau(   3) = (  -0.0000000   0.5773503   1.9951677  )
         4           N   tau(   4) = (   0.5000000   0.2886751   0.6650559  )

   Crystallographic axes

     site n.     atom                  positions (cryst. coord.)
         1           B   tau(   1) = (  0.3333333  0.6666667  0.2500000  )
         2           B   tau(   2) = (  0.6666667  0.3333333  0.7500000  )
         3           N   tau(   3) = (  0.3333333  0.6666667  0.7500000  )
         4           N   tau(   4) = (  0.6666667  0.3333333  0.2500000  )

     number of k points=    84
                       cart. coord. in units 2pi/alat
        k(    1) = (   0.0416667   0.0721688   0.0469885), wk =   0.0138889
        k(    2) = (   0.0416667   0.0721688   0.1409656), wk =   0.0138889
        k(    3) = (   0.0416667   0.1683938   0.0469885), wk =   0.0277778
        k(    4) = (   0.0416667   0.1683938   0.1409656), wk =   0.0277778
        k(    5) = (   0.0416667   0.2646189   0.0469885), wk =   0.0277778
        k(    6) = (   0.0416667   0.2646189   0.1409656), wk =   0.0277778
        k(    7) = (   0.0416667   0.3608439   0.0469885), wk =   0.0277778
        k(    8) = (   0.0416667   0.3608439   0.1409656), wk =   0.0277778
        k(    9) = (   0.0416667   0.4570690   0.0469885), wk =   0.0277778
        k(   10) = (   0.0416667   0.4570690   0.1409656), wk =   0.0277778
        k(   11) = (   0.0416667   0.5532940   0.0469885), wk =   0.0277778
        k(   12) = (   0.0416667   0.5532940   0.1409656), wk =   0.0277778
        k(   13) = (   0.0416667  -0.5051815   0.0469885), wk =   0.0277778
        k(   14) = (   0.0416667  -0.5051815   0.1409656), wk =   0.0277778
        k(   15) = (   0.0416667  -0.4089564   0.0469885), wk =   0.0277778
        k(   16) = (   0.0416667  -0.4089564   0.1409656), wk =   0.0277778
        k(   17) = (   0.0416667  -0.3127314   0.0469885), wk =   0.0277778
        k(   18) = (   0.0416667  -0.3127314   0.1409656), wk =   0.0277778
        k(   19) = (   0.0416667  -0.2165064   0.0469885), wk =   0.0277778
        k(   20) = (   0.0416667  -0.2165064   0.1409656), wk =   0.0277778
        k(   21) = (   0.0416667  -0.1202813   0.0469885), wk =   0.0277778
        k(   22) = (   0.0416667  -0.1202813   0.1409656), wk =   0.0277778
        k(   23) = (   0.0416667  -0.0240563   0.0469885), wk =   0.0138889
        k(   24) = (   0.0416667  -0.0240563   0.1409656), wk =   0.0138889
        k(   25) = (   0.1250000   0.2165064   0.0469885), wk =   0.0138889
        k(   26) = (   0.1250000   0.2165064   0.1409656), wk =   0.0138889
        k(   27) = (   0.1250000   0.3127314   0.0469885), wk =   0.0277778
        k(   28) = (   0.1250000   0.3127314   0.1409656), wk =   0.0277778
        k(   29) = (   0.1250000   0.4089564   0.0469885), wk =   0.0277778
        k(   30) = (   0.1250000   0.4089564   0.1409656), wk =   0.0277778
        k(   31) = (   0.1250000   0.5051815   0.0469885), wk =   0.0277778
        k(   32) = (   0.1250000   0.5051815   0.1409656), wk =   0.0277778
        k(   33) = (   0.1250000   0.6014065   0.0469885), wk =   0.0277778
        k(   34) = (   0.1250000   0.6014065   0.1409656), wk =   0.0277778
        k(   35) = (   0.1250000  -0.4570690   0.0469885), wk =   0.0277778
        k(   36) = (   0.1250000  -0.4570690   0.1409656), wk =   0.0277778
        k(   37) = (   0.1250000  -0.3608439   0.0469885), wk =   0.0277778
        k(   38) = (   0.1250000  -0.3608439   0.1409656), wk =   0.0277778
        k(   39) = (   0.1250000  -0.2646189   0.0469885), wk =   0.0277778
        k(   40) = (   0.1250000  -0.2646189   0.1409656), wk =   0.0277778
        k(   41) = (   0.1250000  -0.1683938   0.0469885), wk =   0.0277778
        k(   42) = (   0.1250000  -0.1683938   0.1409656), wk =   0.0277778
        k(   43) = (   0.1250000  -0.0721688   0.0469885), wk =   0.0138889
        k(   44) = (   0.1250000  -0.0721688   0.1409656), wk =   0.0138889
        k(   45) = (   0.2083333   0.3608439   0.0469885), wk =   0.0138889
        k(   46) = (   0.2083333   0.3608439   0.1409656), wk =   0.0138889
        k(   47) = (   0.2083333   0.4570690   0.0469885), wk =   0.0277778
        k(   48) = (   0.2083333   0.4570690   0.1409656), wk =   0.0277778
        k(   49) = (   0.2083333   0.5532940   0.0469885), wk =   0.0277778
        k(   50) = (   0.2083333   0.5532940   0.1409656), wk =   0.0277778
        k(   51) = (   0.2083333   0.6495191   0.0469885), wk =   0.0277778
        k(   52) = (   0.2083333   0.6495191   0.1409656), wk =   0.0277778
        k(   53) = (   0.2083333  -0.4089564   0.0469885), wk =   0.0277778
        k(   54) = (   0.2083333  -0.4089564   0.1409656), wk =   0.0277778
        k(   55) = (   0.2083333  -0.3127314   0.0469885), wk =   0.0277778
        k(   56) = (   0.2083333  -0.3127314   0.1409656), wk =   0.0277778
        k(   57) = (   0.2083333  -0.2165064   0.0469885), wk =   0.0277778
        k(   58) = (   0.2083333  -0.2165064   0.1409656), wk =   0.0277778
        k(   59) = (   0.2083333  -0.1202813   0.0469885), wk =   0.0138889
        k(   60) = (   0.2083333  -0.1202813   0.1409656), wk =   0.0138889
        k(   61) = (   0.2916667   0.5051815   0.0469885), wk =   0.0138889
        k(   62) = (   0.2916667   0.5051815   0.1409656), wk =   0.0138889
        k(   63) = (   0.2916667   0.6014065   0.0469885), wk =   0.0277778
        k(   64) = (   0.2916667   0.6014065   0.1409656), wk =   0.0277778
        k(   65) = (   0.2916667   0.6976316   0.0469885), wk =   0.0277778
        k(   66) = (   0.2916667   0.6976316   0.1409656), wk =   0.0277778
        k(   67) = (   0.2916667  -0.3608439   0.0469885), wk =   0.0277778
        k(   68) = (   0.2916667  -0.3608439   0.1409656), wk =   0.0277778
        k(   69) = (   0.2916667  -0.2646189   0.0469885), wk =   0.0277778
        k(   70) = (   0.2916667  -0.2646189   0.1409656), wk =   0.0277778
        k(   71) = (   0.2916667  -0.1683938   0.0469885), wk =   0.0138889
        k(   72) = (   0.2916667  -0.1683938   0.1409656), wk =   0.0138889
        k(   73) = (   0.3750000   0.6495191   0.0469885), wk =   0.0138889
        k(   74) = (   0.3750000   0.6495191   0.1409656), wk =   0.0138889
        k(   75) = (   0.3750000   0.7457441   0.0469885), wk =   0.0277778
        k(   76) = (   0.3750000   0.7457441   0.1409656), wk =   0.0277778
        k(   77) = (   0.3750000  -0.3127314   0.0469885), wk =   0.0277778
        k(   78) = (   0.3750000  -0.3127314   0.1409656), wk =   0.0277778
        k(   79) = (   0.3750000  -0.2165064   0.0469885), wk =   0.0138889
        k(   80) = (   0.3750000  -0.2165064   0.1409656), wk =   0.0138889
        k(   81) = (   0.4583333   0.7938566   0.0469885), wk =   0.0138889
        k(   82) = (   0.4583333   0.7938566   0.1409656), wk =   0.0138889
        k(   83) = (   0.4583333  -0.2646189   0.0469885), wk =   0.0138889
        k(   84) = (   0.4583333  -0.2646189   0.1409656), wk =   0.0138889

                       cryst. coord.
        k(    1) = (   0.0416667   0.0416667   0.1250000), wk =   0.0138889
        k(    2) = (   0.0416667   0.0416667   0.3750000), wk =   0.0138889
        k(    3) = (   0.0416667   0.1250000   0.1250000), wk =   0.0277778
        k(    4) = (   0.0416667   0.1250000   0.3750000), wk =   0.0277778
        k(    5) = (   0.0416667   0.2083333   0.1250000), wk =   0.0277778
        k(    6) = (   0.0416667   0.2083333   0.3750000), wk =   0.0277778
        k(    7) = (   0.0416667   0.2916667   0.1250000), wk =   0.0277778
        k(    8) = (   0.0416667   0.2916667   0.3750000), wk =   0.0277778
        k(    9) = (   0.0416667   0.3750000   0.1250000), wk =   0.0277778
        k(   10) = (   0.0416667   0.3750000   0.3750000), wk =   0.0277778
        k(   11) = (   0.0416667   0.4583333   0.1250000), wk =   0.0277778
        k(   12) = (   0.0416667   0.4583333   0.3750000), wk =   0.0277778
        k(   13) = (   0.0416667  -0.4583333   0.1250000), wk =   0.0277778
        k(   14) = (   0.0416667  -0.4583333   0.3750000), wk =   0.0277778
        k(   15) = (   0.0416667  -0.3750000   0.1250000), wk =   0.0277778
        k(   16) = (   0.0416667  -0.3750000   0.3750000), wk =   0.0277778
        k(   17) = (   0.0416667  -0.2916667   0.1250000), wk =   0.0277778
        k(   18) = (   0.0416667  -0.2916667   0.3750000), wk =   0.0277778
        k(   19) = (   0.0416667  -0.2083333   0.1250000), wk =   0.0277778
        k(   20) = (   0.0416667  -0.2083333   0.3750000), wk =   0.0277778
        k(   21) = (   0.0416667  -0.1250000   0.1250000), wk =   0.0277778
        k(   22) = (   0.0416667  -0.1250000   0.3750000), wk =   0.0277778
        k(   23) = (   0.0416667  -0.0416667   0.1250000), wk =   0.0138889
        k(   24) = (   0.0416667  -0.0416667   0.3750000), wk =   0.0138889
        k(   25) = (   0.1250000   0.1250000   0.1250000), wk =   0.0138889
        k(   26) = (   0.1250000   0.1250000   0.3750000), wk =   0.0138889
        k(   27) = (   0.1250000   0.2083333   0.1250000), wk =   0.0277778
        k(   28) = (   0.1250000   0.2083333   0.3750000), wk =   0.0277778
        k(   29) = (   0.1250000   0.2916667   0.1250000), wk =   0.0277778
        k(   30) = (   0.1250000   0.2916667   0.3750000), wk =   0.0277778
        k(   31) = (   0.1250000   0.3750000   0.1250000), wk =   0.0277778
        k(   32) = (   0.1250000   0.3750000   0.3750000), wk =   0.0277778
        k(   33) = (   0.1250000   0.4583333   0.1250000), wk =   0.0277778
        k(   34) = (   0.1250000   0.4583333   0.3750000), wk =   0.0277778
        k(   35) = (   0.1250000  -0.4583333   0.1250000), wk =   0.0277778
        k(   36) = (   0.1250000  -0.4583333   0.3750000), wk =   0.0277778
        k(   37) = (   0.1250000  -0.3750000   0.1250000), wk =   0.0277778
        k(   38) = (   0.1250000  -0.3750000   0.3750000), wk =   0.0277778
        k(   39) = (   0.1250000  -0.2916667   0.1250000), wk =   0.0277778
        k(   40) = (   0.1250000  -0.2916667   0.3750000), wk =   0.0277778
        k(   41) = (   0.1250000  -0.2083333   0.1250000), wk =   0.0277778
        k(   42) = (   0.1250000  -0.2083333   0.3750000), wk =   0.0277778
        k(   43) = (   0.1250000  -0.1250000   0.1250000), wk =   0.0138889
        k(   44) = (   0.1250000  -0.1250000   0.3750000), wk =   0.0138889
        k(   45) = (   0.2083333   0.2083333   0.1250000), wk =   0.0138889
        k(   46) = (   0.2083333   0.2083333   0.3750000), wk =   0.0138889
        k(   47) = (   0.2083333   0.2916667   0.1250000), wk =   0.0277778
        k(   48) = (   0.2083333   0.2916667   0.3750000), wk =   0.0277778
        k(   49) = (   0.2083333   0.3750000   0.1250000), wk =   0.0277778
        k(   50) = (   0.2083333   0.3750000   0.3750000), wk =   0.0277778
        k(   51) = (   0.2083333   0.4583333   0.1250000), wk =   0.0277778
        k(   52) = (   0.2083333   0.4583333   0.3750000), wk =   0.0277778
        k(   53) = (   0.2083333  -0.4583333   0.1250000), wk =   0.0277778
        k(   54) = (   0.2083333  -0.4583333   0.3750000), wk =   0.0277778
        k(   55) = (   0.2083333  -0.3750000   0.1250000), wk =   0.0277778
        k(   56) = (   0.2083333  -0.3750000   0.3750000), wk =   0.0277778
        k(   57) = (   0.2083333  -0.2916667   0.1250000), wk =   0.0277778
        k(   58) = (   0.2083333  -0.2916667   0.3750000), wk =   0.0277778
        k(   59) = (   0.2083333  -0.2083333   0.1250000), wk =   0.0138889
        k(   60) = (   0.2083333  -0.2083333   0.3750000), wk =   0.0138889
        k(   61) = (   0.2916667   0.2916667   0.1250000), wk =   0.0138889
        k(   62) = (   0.2916667   0.2916667   0.3750000), wk =   0.0138889
        k(   63) = (   0.2916667   0.3750000   0.1250000), wk =   0.0277778
        k(   64) = (   0.2916667   0.3750000   0.3750000), wk =   0.0277778
        k(   65) = (   0.2916667   0.4583333   0.1250000), wk =   0.0277778
        k(   66) = (   0.2916667   0.4583333   0.3750000), wk =   0.0277778
        k(   67) = (   0.2916667  -0.4583333   0.1250000), wk =   0.0277778
        k(   68) = (   0.2916667  -0.4583333   0.3750000), wk =   0.0277778
        k(   69) = (   0.2916667  -0.3750000   0.1250000), wk =   0.0277778
        k(   70) = (   0.2916667  -0.3750000   0.3750000), wk =   0.0277778
        k(   71) = (   0.2916667  -0.2916667   0.1250000), wk =   0.0138889
        k(   72) = (   0.2916667  -0.2916667   0.3750000), wk =   0.0138889
        k(   73) = (   0.3750000   0.3750000   0.1250000), wk =   0.0138889
        k(   74) = (   0.3750000   0.3750000   0.3750000), wk =   0.0138889
        k(   75) = (   0.3750000   0.4583333   0.1250000), wk =   0.0277778
        k(   76) = (   0.3750000   0.4583333   0.3750000), wk =   0.0277778
        k(   77) = (   0.3750000  -0.4583333   0.1250000), wk =   0.0277778
        k(   78) = (   0.3750000  -0.4583333   0.3750000), wk =   0.0277778
        k(   79) = (   0.3750000  -0.3750000   0.1250000), wk =   0.0138889
        k(   80) = (   0.3750000  -0.3750000   0.3750000), wk =   0.0138889
        k(   81) = (   0.4583333   0.4583333   0.1250000), wk =   0.0138889
        k(   82) = (   0.4583333   0.4583333   0.3750000), wk =   0.0138889
        k(   83) = (   0.4583333  -0.4583333   0.1250000), wk =   0.0138889
        k(   84) = (   0.4583333  -0.4583333   0.3750000), wk =   0.0138889

     Dense  grid:    19375 G-vectors     FFT dimensions: (  25,  25,  72)

     Dynamical RAM for                 wfc:       0.59 MB

     Dynamical RAM for     wfc (w. buffer):       7.07 MB

     Dynamical RAM for           str. fact:       0.59 MB

     Dynamical RAM for           local pot:       0.00 MB

     Dynamical RAM for          nlocal pot:       1.33 MB

     Dynamical RAM for                qrad:       0.58 MB

     Dynamical RAM for          rho,v,vnew:       1.92 MB

     Dynamical RAM for               rhoin:       0.64 MB

     Dynamical RAM for            rho*nmix:       4.73 MB

     Dynamical RAM for           G-vectors:       1.26 MB

     Dynamical RAM for          h,s,v(r/c):       0.19 MB

     Dynamical RAM for          <psi|beta>:       0.01 MB

     Dynamical RAM for                 psi:       2.36 MB

     Dynamical RAM for                hpsi:       2.36 MB

     Dynamical RAM for      wfcinit/wfcrot:       4.81 MB

     Estimated static dynamical RAM per process >      20.71 MB

     Estimated max dynamical RAM per process >      25.63 MB

     Estimated total dynamical RAM >     205.00 MB

     Check: negative core charge=   -0.000032

     Initial potential from superposition of free atoms

     starting charge   15.99953, renormalised to   16.00000
     Starting wfcs are   64 randomized atomic wfcs

     total cpu time spent up to now is        0.9 secs

     Self-consistent Calculation

     iteration #  1     ecut=    70.00 Ry     beta= 0.70
     Davidson diagonalization with overlap
     ethr =  1.00E-02,  avg # of iterations =  4.1

     total cpu time spent up to now is        1.6 secs

     total energy              =     -52.93058434 Ry
     Harris-Foulkes estimate   =     -53.46376344 Ry
     estimated scf accuracy    <       0.77446517 Ry

     iteration #  2     ecut=    70.00 Ry     beta= 0.70
     Davidson diagonalization with overlap
     ethr =  4.84E-03,  avg # of iterations =  3.3

     total cpu time spent up to now is        2.2 secs

     total energy              =     -53.09898084 Ry
     Harris-Foulkes estimate   =     -53.30517489 Ry
     estimated scf accuracy    <       0.39482793 Ry

     iteration #  3     ecut=    70.00 Ry     beta= 0.70
     Davidson diagonalization with overlap
     ethr =  2.47E-03,  avg # of iterations =  2.1

     total cpu time spent up to now is        2.7 secs

     total energy              =     -53.18495578 Ry
     Harris-Foulkes estimate   =     -53.18687217 Ry
     estimated scf accuracy    <       0.00519744 Ry

     iteration #  4     ecut=    70.00 Ry     beta= 0.70
     Davidson diagonalization with overlap
     ethr =  3.25E-05,  avg # of iterations =  3.3

     total cpu time spent up to now is        3.2 secs

     total energy              =     -53.18614947 Ry
     Harris-Foulkes estimate   =     -53.18618229 Ry
     estimated scf accuracy    <       0.00010535 Ry

     iteration #  5     ecut=    70.00 Ry     beta= 0.70
     Davidson diagonalization with overlap
     ethr =  6.58E-07,  avg # of iterations =  3.8

     total cpu time spent up to now is        3.8 secs

     total energy              =     -53.18617715 Ry
     Harris-Foulkes estimate   =     -53.18618056 Ry
     estimated scf accuracy    <       0.00000802 Ry

     iteration #  6     ecut=    70.00 Ry     beta= 0.70
     Davidson diagonalization with overlap
     ethr =  5.01E-08,  avg # of iterations =  2.3

     total cpu time spent up to now is        4.3 secs

     total energy              =     -53.18617811 Ry
     Harris-Foulkes estimate   =     -53.18617816 Ry
     estimated scf accuracy    <       0.00000010 Ry

     iteration #  7     ecut=    70.00 Ry     beta= 0.70
     Davidson diagonalization with overlap
     ethr =  6.13E-10,  avg # of iterations =  4.2

     total cpu time spent up to now is        5.0 secs

     total energy              =     -53.18617817 Ry
     Harris-Foulkes estimate   =     -53.18617818 Ry
     estimated scf accuracy    <       0.00000002 Ry

     iteration #  8     ecut=    70.00 Ry     beta= 0.70
     Davidson diagonalization with overlap
     ethr =  1.10E-10,  avg # of iterations =  1.4

     total cpu time spent up to now is        5.4 secs

     total energy              =     -53.18617817 Ry
     Harris-Foulkes estimate   =     -53.18617817 Ry
     estimated scf accuracy    <          6.3E-10 Ry

     iteration #  9     ecut=    70.00 Ry     beta= 0.70
     Davidson diagonalization with overlap
     ethr =  3.96E-12,  avg # of iterations =  3.5

     total cpu time spent up to now is        6.0 secs

     End of self-consistent calculation

          k = 0.0417 0.0722 0.0470 (  2414 PWs)   bands (ev):

   -13.0704 -12.7889  -1.7010   0.2848   2.6200   2.6475   2.8231   2.8574
     9.6975  14.1093  15.7675  15.8660  16.2278  16.3674  16.8454  16.9919

     occupation numbers 
     1.0000   1.0000   1.0000   1.0000   1.0000   1.0000   1.0000   1.0000
     0.0000   0.0000   0.0000   0.0000   0.0000   0.0000   0.0000   0.0000

          k = 0.0417 0.0722 0.1410 (  2430 PWs)   bands (ev):

   -12.9916 -12.8752  -1.2008  -0.3952   2.6299   2.6422   2.8328   2.8471
    10.9609  12.7484  15.8058  15.8537  16.2710  16.3274  16.8985  16.9630

     occupation numbers 
     1.0000   1.0000   1.0000   1.0000   1.0000   1.0000   1.0000   1.0000
     0.0000   0.0000   0.0000   0.0000   0.0000   0.0000   0.0000   0.0000

          k = 0.0417 0.1684 0.0470 (  2416 PWs)   bands (ev):

   -12.7320 -12.4617  -1.2378   0.6981   1.4470   1.4795   2.2400   2.2816
    10.2389  13.9228  15.5160  15.7005  15.8707  17.1849  17.6392  18.0485

     occupation numbers 
     1.0000   1.0000   1.0000   1.0000   1.0000   1.0000   1.0000   1.0000
     0.0000   0.0000   0.0000   0.0000   0.0000   0.0000   0.0000   0.0000

          k = 0.0417 0.1684 0.1410 (  2432 PWs)   bands (ev):

   -12.6562 -12.5443  -0.7514   0.0317   1.4629   1.4806   2.2521   2.2694
    11.4047  12.9438  15.5999  15.6884  16.0978  16.6692  17.6250  17.6665

     occupation numbers 
     1.0000   1.0000   1.0000   1.0000   1.0000   1.0000   1.0000   1.0000
     0.0000   0.0000   0.0000   0.0000   0.0000   0.0000   0.0000   0.0000

          k = 0.0417 0.2646 0.0470 (  2415 PWs)   bands (ev):

   -12.1439 -11.8947  -0.4382  -0.2193  -0.1873   1.4258   1.4952   1.5449
    11.0818  13.2393  14.0050  15.1312  15.8203  18.2092  19.4311  19.6071

     occupation numbers 
     1.0000   1.0000   1.0000   1.0000   1.0000   1.0000   1.0000   1.0000
     0.0000   0.0000   0.0000   0.0000   0.0000   0.0000   0.0000   0.0000

          k = 0.0417 0.2646 0.1410 (  2417 PWs)   bands (ev):

   -12.0737 -11.9706  -0.2810  -0.2227   0.1140   0.8267   1.5094   1.5302
    11.9377  12.8129  14.4900  15.0656  15.8622  16.5988  19.5169  19.5725

     occupation numbers 
     1.0000   1.0000   1.0000   1.0000   1.0000   1.0000   1.0000   1.0000
     0.0000   0.0000   0.0000   0.0000   0.0000   0.0000   0.0000   0.0000

          k = 0.0417 0.3608 0.0470 (  2413 PWs)   bands (ev):

   -11.3582 -11.1433  -2.0212  -1.9503   0.6941   0.8196   0.8746   2.3778
    11.5281  12.0632  12.5315  14.7961  15.8189  18.5705  20.1081  21.8442

     occupation numbers 
     1.0000   1.0000   1.0000   1.0000   1.0000   1.0000   1.0000   1.0000
     0.0000   0.0000   0.0000   0.0000   0.0000   0.0000   0.0000   0.0000

          k = 0.0417 0.3608 0.1410 (  2416 PWs)   bands (ev):

   -11.2973 -11.2083  -2.0063  -1.9763   0.8329   0.8568   1.1430   1.8299
    11.5047  11.7951  13.7852  14.6686  15.9531  16.9267  21.1039  21.6603

     occupation numbers 
     1.0000   1.0000   1.0000   1.0000   1.0000   1.0000   1.0000   1.0000
     0.0000   0.0000   0.0000   0.0000   0.0000   0.0000   0.0000   0.0000

          k = 0.0417 0.4571 0.0470 (  2421 PWs)   bands (ev):

   -10.5080 -10.3500  -3.5625  -3.4833   0.3430   0.4021   1.9731   3.3636
     9.7049  10.7693  13.3847  14.5728  16.0368  18.6111  19.6932  22.8862

     occupation numbers 
     1.0000   1.0000   1.0000   1.0000   1.0000   1.0000   1.0000   1.0000
     0.0000   0.0000   0.0000   0.0000   0.0000   0.0000   0.0000   0.0000

          k = 0.0417 0.4571 0.1410 (  2414 PWs)   bands (ev):

   -10.4626 -10.3972  -3.5436  -3.5106   0.3600   0.3844   2.3559   2.9302
     9.8808  10.3191  14.1215  14.5236  16.4437  17.4892  20.8341  21.9572

     occupation numbers 
     1.0000   1.0000   1.0000   1.0000   1.0000   1.0000   1.0000   1.0000
     0.0000   0.0000   0.0000   0.0000   0.0000   0.0000   0.0000   0.0000

          k = 0.0417 0.5533 0.0470 (  2420 PWs)   bands (ev):

    -9.9354  -9.8616  -4.4063  -4.3452   0.1297   0.1901   2.9365   3.9153
     8.5683   9.8418  14.0055  14.4752  16.7117  17.9353  19.1522  22.6005

     occupation numbers 
     1.0000   1.0000   1.0000   1.0000   1.0000   1.0000   1.0000   1.0000
     0.0000   0.0000   0.0000   0.0000   0.0000   0.0000   0.0000   0.0000

          k = 0.0417 0.5533 0.1410 (  2411 PWs)   bands (ev):

    -9.9136  -9.8830  -4.3932  -4.3678   0.1472   0.1722   3.2324   3.6434
     8.7846   9.3090  14.3109  14.4702  17.2454  17.6874  20.0850  21.4424

     occupation numbers 
     1.0000   1.0000   1.0000   1.0000   1.0000   1.0000   1.0000   1.0000
     0.0000   0.0000   0.0000   0.0000   0.0000   0.0000   0.0000   0.0000

          k = 0.0417-0.5052 0.0470 (  2416 PWs)   bands (ev):

   -10.1529 -10.0365  -4.1071  -4.0349   0.2014   0.2614   2.5544   3.7306
     8.9803  10.1860  13.7902  14.5079  16.3313  18.3778  19.3032  22.6916

     occupation numbers 
     1.0000   1.0000   1.0000   1.0000   1.0000   1.0000   1.0000   1.0000
     0.0000   0.0000   0.0000   0.0000   0.0000   0.0000   0.0000   0.0000

          k = 0.0417-0.5052 0.1410 (  2417 PWs)   bands (ev):

   -10.1191 -10.0709  -4.0905  -4.0605   0.2187   0.2434   2.8923   3.3819
     9.1901   9.6862  14.2506  14.4879  16.8531  17.6813  20.3889  21.6354

     occupation numbers 
     1.0000   1.0000   1.0000   1.0000   1.0000   1.0000   1.0000   1.0000
     0.0000   0.0000   0.0000   0.0000   0.0000   0.0000   0.0000   0.0000

          k = 0.0417-0.4090 0.0470 (  2418 PWs)   bands (ev):

   -10.9269 -10.7365  -2.8460  -2.7680   0.5508   0.6084   1.3298   2.8880
    10.6091  11.4665  12.8761  14.6693  15.8815  18.6318  20.0558  22.8505

     occupation numbers 
     1.0000   1.0000   1.0000   1.0000   1.0000   1.0000   1.0000   1.0000
     0.0000   0.0000   0.0000   0.0000   0.0000   0.0000   0.0000   0.0000

          k = 0.0417-0.4090 0.1410 (  2416 PWs)   bands (ev):

   -10.8726 -10.7938  -2.8277  -2.7951   0.5671   0.5910   1.7483   2.3882
    10.7075  11.0660  13.9344  14.5799  16.1349  17.2070  21.1702  22.1761

     occupation numbers 
     1.0000   1.0000   1.0000   1.0000   1.0000   1.0000   1.0000   1.0000
     0.0000   0.0000   0.0000   0.0000   0.0000   0.0000   0.0000   0.0000

          k = 0.0417-0.3127 0.0470 (  2415 PWs)   bands (ev):

   -11.7704 -11.5363  -1.1382  -1.0771   0.1061   1.1378   1.1906   1.8814
    11.5562  12.5907  13.1301  14.9514  15.8071  18.4509  19.8558  20.7240

     occupation numbers 
     1.0000   1.0000   1.0000   1.0000   1.0000   1.0000   1.0000   1.0000
     0.0000   0.0000   0.0000   0.0000   0.0000   0.0000   0.0000   0.0000

          k = 0.0417-0.3127 0.1410 (  2415 PWs)   bands (ev):

   -11.7042 -11.6073  -1.1301  -1.1026   0.5743   1.1516   1.1717   1.3043
    11.9699  12.4054  13.9293  14.8201  15.8737  16.7111  20.4750  20.6568

     occupation numbers 
     1.0000   1.0000   1.0000   1.0000   1.0000   1.0000   1.0000   1.0000
     0.0000   0.0000   0.0000   0.0000   0.0000   0.0000   0.0000   0.0000

          k = 0.0417-0.2165 0.0470 (  2406 PWs)   bands (ev):

   -12.4669 -12.2058  -0.8733   0.6428   0.6688   1.0407   1.8703   1.9164
    10.6301  13.6677  14.9041  15.3258  15.8418  17.7608  18.5575  18.7865

     occupation numbers 
     1.0000   1.0000   1.0000   1.0000   1.0000   1.0000   1.0000   1.0000
     0.0000   0.0000   0.0000   0.0000   0.0000   0.0000   0.0000   0.0000

          k = 0.0417-0.2165 0.1410 (  2415 PWs)   bands (ev):

   -12.3935 -12.2854  -0.4045   0.3231   0.6727   0.7327   1.8838   1.9030
    11.6893  12.9648  15.1849  15.3608  15.9036  16.6002  18.5271  18.5434

     occupation numbers 
     1.0000   1.0000   1.0000   1.0000   1.0000   1.0000   1.0000   1.0000
     0.0000   0.0000   0.0000   0.0000   0.0000   0.0000   0.0000   0.0000

          k = 0.0417-0.1203 0.0470 (  2408 PWs)   bands (ev):

   -12.9341 -12.6571  -1.5148   0.4522   2.1247   2.1508   2.5709   2.6080
     9.9232  14.0543  15.6774  15.8503  16.3799  16.6414  16.8978  17.4243

     occupation numbers 
     1.0000   1.0000   1.0000   1.0000   1.0000   1.0000   1.0000   1.0000
     0.0000   0.0000   0.0000   0.0000   0.0000   0.0000   0.0000   0.0000

          k = 0.0417-0.1203 0.1410 (  2425 PWs)   bands (ev):

   -12.8565 -12.7419  -1.0197  -0.2222   2.1361   2.1489   2.5815   2.5970
    11.1507  12.8487  15.7427  15.8142  16.5052  16.6247  16.9104  17.0802

     occupation numbers 
     1.0000   1.0000   1.0000   1.0000   1.0000   1.0000   1.0000   1.0000
     0.0000   0.0000   0.0000   0.0000   0.0000   0.0000   0.0000   0.0000

          k = 0.0417-0.0241 0.0470 (  2418 PWs)   bands (ev):

   -13.1390 -12.8553  -1.7944   0.2004   2.8848   2.9167   2.9573   2.9917
     9.5784  14.1258  15.7956  15.9082  15.9768  16.0898  16.7862  17.0817

     occupation numbers 
     1.0000   1.0000   1.0000   1.0000   1.0000   1.0000   1.0000   1.0000
     0.0000   0.0000   0.0000   0.0000   0.0000   0.0000   0.0000   0.0000

          k = 0.0417-0.0241 0.1410 (  2427 PWs)   bands (ev):

   -13.0596 -12.9423  -1.2919  -0.4825   2.8948   2.9083   2.9674   2.9816
    10.8589  12.6869  15.8334  15.8823  16.0093  16.0561  16.9532  17.0501

     occupation numbers 
     1.0000   1.0000   1.0000   1.0000   1.0000   1.0000   1.0000   1.0000
     0.0000   0.0000   0.0000   0.0000   0.0000   0.0000   0.0000   0.0000

          k = 0.1250 0.2165 0.0470 (  2424 PWs)   bands (ev):

   -12.2714 -12.0173  -0.6039   0.2801   0.2876   1.2692   1.4257   1.4656
    10.9412  13.4683  14.3873  15.9695  16.1930  17.1588  18.4845  19.0822

     occupation numbers 
     1.0000   1.0000   1.0000   1.0000   1.0000   1.0000   1.0000   1.0000
     0.0000   0.0000   0.0000   0.0000   0.0000   0.0000   0.0000   0.0000

          k = 0.1250 0.2165 0.1410 (  2423 PWs)   bands (ev):

   -12.1998 -12.0947  -0.1672   0.2332   0.3265   0.6922   1.4381   1.4538
    11.8987  12.9430  14.8802  15.8915  16.0565  16.2774  18.4853  18.5756

     occupation numbers 
     1.0000   1.0000   1.0000   1.0000   1.0000   1.0000   1.0000   1.0000
     0.0000   0.0000   0.0000   0.0000   0.0000   0.0000   0.0000   0.0000

          k = 0.1250 0.3127 0.0470 (  2418 PWs)   bands (ev):

   -11.5864 -11.3597  -1.2337  -1.1937   0.3626   0.5444   0.5982   2.1056
    11.8371  12.4697  12.8237  15.9463  16.5991  17.8772  18.9836  19.7553

     occupation numbers 
     1.0000   1.0000   1.0000   1.0000   1.0000   1.0000   1.0000   1.0000
     0.0000   0.0000   0.0000   0.0000   0.0000   0.0000   0.0000   0.0000

          k = 0.1250 0.3127 0.1410 (  2413 PWs)   bands (ev):

   -11.5222 -11.4284  -1.2294  -1.2116   0.5488   0.5692   0.8423   1.5409
    11.9615  12.2631  14.0611  15.6026  16.5091  16.6933  19.4242  19.6514

     occupation numbers 
     1.0000   1.0000   1.0000   1.0000   1.0000   1.0000   1.0000   1.0000
     0.0000   0.0000   0.0000   0.0000   0.0000   0.0000   0.0000   0.0000

          k = 0.1250 0.4090 0.0470 (  2417 PWs)   bands (ev):

   -10.7611 -10.5782  -2.7911  -2.7236  -0.1199  -0.0585   1.5740   3.0871
    10.5867  11.2838  13.3362  15.7162  16.7109  17.9798  19.3321  21.5139

     occupation numbers 
     1.0000   1.0000   1.0000   1.0000   1.0000   1.0000   1.0000   1.0000
     0.0000   0.0000   0.0000   0.0000   0.0000   0.0000   0.0000   0.0000

          k = 0.1250 0.4090 0.1410 (  2409 PWs)   bands (ev):

   -10.7088 -10.6331  -2.7753  -2.7472  -0.1041  -0.0786   1.9847   2.6068
    10.6519  10.9533  14.5216  15.5366  16.6871  17.1373  20.1189  21.0230

     occupation numbers 
     1.0000   1.0000   1.0000   1.0000   1.0000   1.0000   1.0000   1.0000
     0.0000   0.0000   0.0000   0.0000   0.0000   0.0000   0.0000   0.0000

          k = 0.1250 0.5052 0.0470 (  2417 PWs)   bands (ev):

   -10.0107  -9.9002  -3.9755  -3.9031  -0.4990  -0.4331   2.7808   3.8949
     9.0747  10.0943  14.5290  15.5583  16.8145  17.6167  18.9414  22.5588

     occupation numbers 
     1.0000   1.0000   1.0000   1.0000   1.0000   1.0000   1.0000   1.0000
     0.0000   0.0000   0.0000   0.0000   0.0000   0.0000   0.0000   0.0000

          k = 0.1250 0.5052 0.1410 (  2417 PWs)   bands (ev):

    -9.9786  -9.9328  -3.9583  -3.9283  -0.4814  -0.4540   3.1068   3.5716
     9.2387   9.6628  15.1547  15.5172  16.9638  17.3250  19.9220  21.4240

     occupation numbers 
     1.0000   1.0000   1.0000   1.0000   1.0000   1.0000   1.0000   1.0000
     0.0000   0.0000   0.0000   0.0000   0.0000   0.0000   0.0000   0.0000

          k = 0.1250 0.6014 0.0470 (  2411 PWs)   bands (ev):

    -9.8017  -9.7320  -4.2594  -4.1921  -0.5756  -0.5090   3.1596   4.0647
     8.6939   9.7718  14.8824  15.5245  16.9210  17.4897  18.6092  22.4733

     occupation numbers 
     1.0000   1.0000   1.0000   1.0000   1.0000   1.0000   1.0000   1.0000
     0.0000   0.0000   0.0000   0.0000   0.0000   0.0000   0.0000   0.0000

          k = 0.1250 0.6014 0.1410 (  2411 PWs)   bands (ev):

    -9.7811  -9.7523  -4.2440  -4.2161  -0.5577  -0.5299   3.4407   3.8217
     8.8611   9.3090  15.2950  15.5113  17.1497  17.2918  19.7638  21.4789

     occupation numbers 
     1.0000   1.0000   1.0000   1.0000   1.0000   1.0000   1.0000   1.0000
     0.0000   0.0000   0.0000   0.0000   0.0000   0.0000   0.0000   0.0000

          k = 0.1250-0.4571 0.0470 (  2420 PWs)   bands (ev):

   -10.3539 -10.2029  -3.4616  -3.3880  -0.3466  -0.2824   2.2076   3.5462
     9.7468  10.6369  13.9652  15.6234  16.7453  17.7915  19.2774  22.3953

     occupation numbers 
     1.0000   1.0000   1.0000   1.0000   1.0000   1.0000   1.0000   1.0000
     0.0000   0.0000   0.0000   0.0000   0.0000   0.0000   0.0000   0.0000

          k = 0.1250-0.4571 0.1410 (  2410 PWs)   bands (ev):

   -10.3104 -10.2479  -3.4439  -3.4132  -0.3295  -0.3029   2.5811   3.1347
     9.8817  10.2546  14.8798  15.5264  16.7974  17.2709  20.0998  21.3389

     occupation numbers 
     1.0000   1.0000   1.0000   1.0000   1.0000   1.0000   1.0000   1.0000
     0.0000   0.0000   0.0000   0.0000   0.0000   0.0000   0.0000   0.0000

          k = 0.1250-0.3608 0.0470 (  2417 PWs)   bands (ev):

   -11.1825 -10.9750  -2.0300  -1.9745   0.1780   0.2356   0.9487   2.5907
    11.4658  11.9331  12.7665  15.8291  16.6753  18.0805  19.1177  20.6033

     occupation numbers 
     1.0000   1.0000   1.0000   1.0000   1.0000   1.0000   1.0000   1.0000
     0.0000   0.0000   0.0000   0.0000   0.0000   0.0000   0.0000   0.0000

          k = 0.1250-0.3608 0.1410 (  2406 PWs)   bands (ev):

   -11.1234 -11.0376  -2.0185  -1.9952   0.1917   0.2157   1.3888   2.0606
    11.4128  11.6514  14.1878  15.5538  16.6078  16.9382  19.8640  20.3775

     occupation numbers 
     1.0000   1.0000   1.0000   1.0000   1.0000   1.0000   1.0000   1.0000
     0.0000   0.0000   0.0000   0.0000   0.0000   0.0000   0.0000   0.0000

          k = 0.1250-0.2646 0.0470 (  2419 PWs)   bands (ev):

   -11.9534 -11.7114  -0.4583  -0.4276  -0.1451   0.9641   1.0133   1.6610
    11.4006  13.0471  13.5778  16.0277  16.4370  17.4520  19.0386  19.0402

     occupation numbers 
     1.0000   1.0000   1.0000   1.0000   1.0000   1.0000   1.0000   1.0000
     0.0000   0.0000   0.0000   0.0000   0.0000   0.0000   0.0000   0.0000

          k = 0.1250-0.2646 0.1410 (  2417 PWs)   bands (ev):

   -11.8851 -11.7850  -0.4663  -0.4464   0.3331   0.9458   1.0022   1.1020
    12.0807  12.7131  14.3356  15.7240  16.3180  16.4532  18.9741  19.0035

     occupation numbers 
     1.0000   1.0000   1.0000   1.0000   1.0000   1.0000   1.0000   1.0000
     0.0000   0.0000   0.0000   0.0000   0.0000   0.0000   0.0000   0.0000

          k = 0.1250-0.1684 0.0470 (  2414 PWs)   bands (ev):

   -12.5326 -12.2691  -0.9636   0.8745   0.9134   1.0049   1.8686   1.9103
    10.5471  13.7520  15.1173  15.7148  15.9928  17.1129  18.0488  18.7774

     occupation numbers 
     1.0000   1.0000   1.0000   1.0000   1.0000   1.0000   1.0000   1.0000
     0.0000   0.0000   0.0000   0.0000   0.0000   0.0000   0.0000   0.0000

          k = 0.1250-0.1684 0.1410 (  2426 PWs)   bands (ev):

   -12.4585 -12.3495  -0.4885   0.2695   0.9315   0.9594   1.8813   1.8983
    11.6393  12.9897  15.4353  15.7409  15.9683  16.3852  18.0546  18.1662

     occupation numbers 
     1.0000   1.0000   1.0000   1.0000   1.0000   1.0000   1.0000   1.0000
     0.0000   0.0000   0.0000   0.0000   0.0000   0.0000   0.0000   0.0000

          k = 0.1250-0.0722 0.0470 (  2418 PWs)   bands (ev):

   -12.8665 -12.5917  -1.4222   0.5349   1.8671   1.8994   2.4778   2.5188
    10.0289  14.0140  15.5095  15.8067  16.1637  17.1126  17.2213  17.4500

     occupation numbers 
     1.0000   1.0000   1.0000   1.0000   1.0000   1.0000   1.0000   1.0000
     0.0000   0.0000   0.0000   0.0000   0.0000   0.0000   0.0000   0.0000

          k = 0.1250-0.0722 0.1410 (  2426 PWs)   bands (ev):

   -12.7894 -12.6758  -0.9298  -0.1367   1.8813   1.8971   2.4898   2.5068
    11.2365  12.8837  15.6106  15.7233  16.4041  16.8705  17.1437  17.1888

     occupation numbers 
     1.0000   1.0000   1.0000   1.0000   1.0000   1.0000   1.0000   1.0000
     0.0000   0.0000   0.0000   0.0000   0.0000   0.0000   0.0000   0.0000

          k = 0.2083 0.3608 0.0470 (  2421 PWs)   bands (ev):

   -10.8517 -10.6607  -2.2670  -2.2633  -0.5386  -0.4896   1.4336   2.9858
    11.0699  11.4473  13.3165  17.1227  17.3796  17.7318  18.2980  19.9752

     occupation numbers 
     1.0000   1.0000   1.0000   1.0000   1.0000   1.0000   1.0000   1.0000
     0.0000   0.0000   0.0000   0.0000   0.0000   0.0000   0.0000   0.0000

          k = 0.2083 0.3608 0.1410 (  2407 PWs)   bands (ev):

   -10.7972 -10.7181  -2.2689  -2.2677  -0.5276  -0.5077   1.8538   2.4911
    11.0255  11.2244  14.6534  16.2710  17.2446  17.4869  19.0615  19.6982

     occupation numbers 
     1.0000   1.0000   1.0000   1.0000   1.0000   1.0000   1.0000   1.0000
     0.0000   0.0000   0.0000   0.0000   0.0000   0.0000   0.0000   0.0000

          k = 0.2083 0.4571 0.0470 (  2408 PWs)   bands (ev):

   -10.0768  -9.9422  -3.3361  -3.2792  -1.2999  -1.2435   2.6459   3.8633
     9.6977  10.3184  14.7247  16.5151  17.1971  17.8941  19.1236  21.1706

     occupation numbers 
     1.0000   1.0000   1.0000   1.0000   1.0000   1.0000   1.0000   1.0000
     0.0000   0.0000   0.0000   0.0000   0.0000   0.0000   0.0000   0.0000

          k = 0.2083 0.4571 0.1410 (  2409 PWs)   bands (ev):

   -10.0380  -9.9823  -3.3221  -3.2985  -1.2865  -1.2632   2.9943   3.4998
     9.7603  10.0302  15.6574  16.4208  17.2865  17.6317  19.5113  20.3736

     occupation numbers 
     1.0000   1.0000   1.0000   1.0000   1.0000   1.0000   1.0000   1.0000
     0.0000   0.0000   0.0000   0.0000   0.0000   0.0000   0.0000   0.0000

          k = 0.2083 0.5533 0.0470 (  2408 PWs)   bands (ev):

    -9.5745  -9.5162  -3.9836  -3.9004  -1.6176  -1.5518   3.5688   4.2939
     8.8683   9.5778  15.9867  16.0641  17.0678  17.2897  19.4719  21.5433

     occupation numbers 
     1.0000   1.0000   1.0000   1.0000   1.0000   1.0000   1.0000   1.0000
     0.0000   0.0000   0.0000   0.0000   0.0000   0.0000   0.0000   0.0000

          k = 0.2083 0.5533 0.1410 (  2411 PWs)   bands (ev):

    -9.5573  -9.5331  -3.9624  -3.9279  -1.6012  -1.5739   3.8108   4.1176
     8.9321   9.2323  16.3393  16.5879  16.9282  17.2130  19.9860  20.9679

     occupation numbers 
     1.0000   1.0000   1.0000   1.0000   1.0000   1.0000   1.0000   1.0000
     0.0000   0.0000   0.0000   0.0000   0.0000   0.0000   0.0000   0.0000

          k = 0.2083 0.6495 0.0470 (  2406 PWs)   bands (ev):

    -9.7629  -9.6669  -3.7497  -3.6750  -1.5129  -1.4505   3.1976   4.1646
     9.1658   9.8560  15.4488  16.1814  17.1172  17.6402  19.3963  21.6154

     occupation numbers 
     1.0000   1.0000   1.0000   1.0000   1.0000   1.0000   1.0000   1.0000
     0.0000   0.0000   0.0000   0.0000   0.0000   0.0000   0.0000   0.0000

          k = 0.2083 0.6495 0.1410 (  2411 PWs)   bands (ev):

    -9.7349  -9.6952  -3.7307  -3.6999  -1.4976  -1.4718   3.4928   3.8981
     9.2377   9.5322  16.1505  16.3844  17.1091  17.4259  19.8192  20.7393

     occupation numbers 
     1.0000   1.0000   1.0000   1.0000   1.0000   1.0000   1.0000   1.0000
     0.0000   0.0000   0.0000   0.0000   0.0000   0.0000   0.0000   0.0000

          k = 0.2083-0.4090 0.0470 (  2419 PWs)   bands (ev):

   -10.4552 -10.2892  -2.8188  -2.7879  -0.9741  -0.9235   2.0368   3.4468
    10.3638  10.8691  13.9970  16.9553  17.2773  17.9347  18.6344  20.4570

     occupation numbers 
     1.0000   1.0000   1.0000   1.0000   1.0000   1.0000   1.0000   1.0000
     0.0000   0.0000   0.0000   0.0000   0.0000   0.0000   0.0000   0.0000

          k = 0.2083-0.4090 0.1410 (  2410 PWs)   bands (ev):

   -10.4076 -10.3388  -2.8123  -2.7996  -0.9626  -0.9418   2.4262   3.0077
    10.3878  10.6192  15.1433  16.3955  17.4169  17.6764  19.1661  19.9745

     occupation numbers 
     1.0000   1.0000   1.0000   1.0000   1.0000   1.0000   1.0000   1.0000
     0.0000   0.0000   0.0000   0.0000   0.0000   0.0000   0.0000   0.0000

          k = 0.2083-0.3127 0.0470 (  2421 PWs)   bands (ev):

   -11.2354 -11.0246  -1.7439  -1.7201  -0.0164   0.0347   0.8706   2.5287
    11.7047  12.0160  12.7607  16.5822  17.1688  17.6833  18.5744  19.7861

     occupation numbers 
     1.0000   1.0000   1.0000   1.0000   1.0000   1.0000   1.0000   1.0000
     0.0000   0.0000   0.0000   0.0000   0.0000   0.0000   0.0000   0.0000

          k = 0.2083-0.3127 0.1410 (  2411 PWs)   bands (ev):

   -11.1755 -11.0882  -1.7415  -1.7313  -0.0050   0.0154   1.3152   1.9932
    11.5867  11.7901  14.2548  16.0010  16.8920  17.0517  19.2236  19.6215

     occupation numbers 
     1.0000   1.0000   1.0000   1.0000   1.0000   1.0000   1.0000   1.0000
     0.0000   0.0000   0.0000   0.0000   0.0000   0.0000   0.0000   0.0000

          k = 0.2083-0.2165 0.0470 (  2421 PWs)   bands (ev):

   -11.8921 -11.6527  -0.7330  -0.6833  -0.0641   1.0700   1.1218   1.7348
    11.4510  12.8883  13.4141  15.4306  16.1207  18.0591  19.2851  19.7423

     occupation numbers 
     1.0000   1.0000   1.0000   1.0000   1.0000   1.0000   1.0000   1.0000
     0.0000   0.0000   0.0000   0.0000   0.0000   0.0000   0.0000   0.0000

          k = 0.2083-0.2165 0.1410 (  2412 PWs)   bands (ev):

   -11.8244 -11.7253  -0.7319  -0.7073   0.4110   1.0607   1.1012   1.1774
    12.0485  12.6067  14.1725  15.2434  16.1014  16.5945  19.5558  19.6790

     occupation numbers 
     1.0000   1.0000   1.0000   1.0000   1.0000   1.0000   1.0000   1.0000
     0.0000   0.0000   0.0000   0.0000   0.0000   0.0000   0.0000   0.0000

          k = 0.2083-0.1203 0.0470 (  2412 PWs)   bands (ev):

   -12.3367 -12.0803  -0.6941   0.2377   0.2757   1.1935   1.7643   1.8124
    10.8055  13.4983  14.5170  15.0975  15.7344  18.2345  19.0906  19.1957

     occupation numbers 
     1.0000   1.0000   1.0000   1.0000   1.0000   1.0000   1.0000   1.0000
     0.0000   0.0000   0.0000   0.0000   0.0000   0.0000   0.0000   0.0000

          k = 0.2083-0.1203 0.1410 (  2423 PWs)   bands (ev):

   -12.2646 -12.1585  -0.2502   0.2015   0.2901   0.6207   1.7782   1.7981
    11.7931  12.9142  14.8488  15.1125  15.8185  16.6385  19.1199  19.1635

     occupation numbers 
     1.0000   1.0000   1.0000   1.0000   1.0000   1.0000   1.0000   1.0000
     0.0000   0.0000   0.0000   0.0000   0.0000   0.0000   0.0000   0.0000

          k = 0.2917 0.5052 0.0470 (  2399 PWs)   bands (ev):

    -9.5050  -9.4377  -3.6284  -3.5340  -2.2405  -2.2164   3.6916   4.3849
     9.0957   9.4985  15.3184  16.2531  17.9118  17.9280  20.5805  21.0655

     occupation numbers 
     1.0000   1.0000   1.0000   1.0000   1.0000   1.0000   1.0000   1.0000
     0.0000   0.0000   0.0000   0.0000   0.0000   0.0000   0.0000   0.0000

          k = 0.2917 0.5052 0.1410 (  2400 PWs)   bands (ev):

    -9.4852  -9.4574  -3.6019  -3.5630  -2.2382  -2.2282   3.9266   4.2197
     9.0719   9.2497  15.8295  16.5040  17.6427  18.0078  20.6163  20.7384

     occupation numbers 
     1.0000   1.0000   1.0000   1.0000   1.0000   1.0000   1.0000   1.0000
     0.0000   0.0000   0.0000   0.0000   0.0000   0.0000   0.0000   0.0000

          k = 0.2917 0.6014 0.0470 (  2396 PWs)   bands (ev):

    -9.3558  -9.3238  -3.6838  -3.5593  -2.4782  -2.4531   4.0508   4.4204
     8.9897   9.2568  15.0465  16.9381  17.6303  17.8883  21.0056  21.1254

     occupation numbers 
     1.0000   1.0000   1.0000   1.0000   1.0000   1.0000   1.0000   1.0000
     0.0000   0.0000   0.0000   0.0000   0.0000   0.0000   0.0000   0.0000

          k = 0.2917 0.6014 0.1410 (  2390 PWs)   bands (ev):

    -9.3461  -9.3329  -3.6483  -3.5968  -2.4758  -2.4653   4.2090   4.3668
     8.9143   9.0311  15.6328  16.6377  17.7107  18.0029  21.1542  21.1649

     occupation numbers 
     1.0000   1.0000   1.0000   1.0000   1.0000   1.0000   1.0000   1.0000
     0.0000   0.0000   0.0000   0.0000   0.0000   0.0000   0.0000   0.0000

          k = 0.2917 0.6976 0.0470 (  2400 PWs)   bands (ev):

    -9.7592  -9.6561  -3.5129  -3.4472  -1.8301  -1.7872   3.1944   4.1852
     9.3429   9.8733  15.4901  15.8319  17.7560  17.9943  19.7594  21.0960

     occupation numbers 
     1.0000   1.0000   1.0000   1.0000   1.0000   1.0000   1.0000   1.0000
     0.0000   0.0000   0.0000   0.0000   0.0000   0.0000   0.0000   0.0000

          k = 0.2917 0.6976 0.1410 (  2406 PWs)   bands (ev):

    -9.7292  -9.6866  -3.4956  -3.4685  -1.8215  -1.8038   3.4948   3.9096
     9.3714   9.6038  16.1491  16.1715  17.5949  17.8517  19.9278  20.3725

     occupation numbers 
     1.0000   1.0000   1.0000   1.0000   1.0000   1.0000   1.0000   1.0000
     0.0000   0.0000   0.0000   0.0000   0.0000   0.0000   0.0000   0.0000

          k = 0.2917-0.3608 0.0470 (  2409 PWs)   bands (ev):

   -10.4203 -10.2593  -3.0954  -3.0340  -0.7096  -0.6480   2.0952   3.4815
    10.1208  10.7974  13.9953  16.4297  17.2420  17.4379  19.0496  21.3246

     occupation numbers 
     1.0000   1.0000   1.0000   1.0000   1.0000   1.0000   1.0000   1.0000
     0.0000   0.0000   0.0000   0.0000   0.0000   0.0000   0.0000   0.0000

          k = 0.2917-0.3608 0.1410 (  2407 PWs)   bands (ev):

   -10.3742 -10.3074  -3.0808  -3.0552  -0.6941  -0.6686   2.4792   3.0515
    10.1964  10.4891  15.0822  16.1509  17.0777  17.2660  19.6348  20.6587

     occupation numbers 
     1.0000   1.0000   1.0000   1.0000   1.0000   1.0000   1.0000   1.0000
     0.0000   0.0000   0.0000   0.0000   0.0000   0.0000   0.0000   0.0000

          k = 0.2917-0.2646 0.0470 (  2412 PWs)   bands (ev):

   -11.0784 -10.8776  -2.4294  -2.3585   0.4088   0.4674   1.1030   2.7123
    11.0729  11.7461  12.7946  15.1431  16.1718  18.3934  19.7452  21.7092

     occupation numbers 
     1.0000   1.0000   1.0000   1.0000   1.0000   1.0000   1.0000   1.0000
     0.0000   0.0000   0.0000   0.0000   0.0000   0.0000   0.0000   0.0000

          k = 0.2917-0.2646 0.1410 (  2417 PWs)   bands (ev):

   -11.0213 -10.9382  -2.4134  -2.3837   0.4239   0.4485   1.5341   2.1936
    11.1010  11.3979  14.0606  14.9978  16.2548  17.0476  20.6569  21.3712

     occupation numbers 
     1.0000   1.0000   1.0000   1.0000   1.0000   1.0000   1.0000   1.0000
     0.0000   0.0000   0.0000   0.0000   0.0000   0.0000   0.0000   0.0000

          k = 0.2917-0.1684 0.0470 (  2415 PWs)   bands (ev):

   -11.5910 -11.3651  -1.5825  -1.5148   0.3608   1.0659   1.1196   2.0977
    11.6864  12.2296  12.7842  14.7276  15.6928  18.5840  20.2489  21.5281

     occupation numbers 
     1.0000   1.0000   1.0000   1.0000   1.0000   1.0000   1.0000   1.0000
     0.0000   0.0000   0.0000   0.0000   0.0000   0.0000   0.0000   0.0000

          k = 0.2917-0.1684 0.1410 (  2407 PWs)   bands (ev):

   -11.5270 -11.4335  -1.5700  -1.5409   0.8194   1.0814   1.1038   1.5285
    11.8036  12.1300  13.7539  14.6084  15.8196  16.8114  21.4154  21.5571

     occupation numbers 
     1.0000   1.0000   1.0000   1.0000   1.0000   1.0000   1.0000   1.0000
     0.0000   0.0000   0.0000   0.0000   0.0000   0.0000   0.0000   0.0000

          k = 0.3750 0.6495 0.0470 (  2402 PWs)   bands (ev):

    -9.4303  -9.3903  -3.8430  -3.7413  -2.1304  -2.0757   3.8705   4.3908
     8.9099   9.3900  15.3872  16.6893  17.3498  17.6751  20.2678  21.1406

     occupation numbers 
     1.0000   1.0000   1.0000   1.0000   1.0000   1.0000   1.0000   1.0000
     0.0000   0.0000   0.0000   0.0000   0.0000   0.0000   0.0000   0.0000

          k = 0.3750 0.6495 0.1410 (  2405 PWs)   bands (ev):

    -9.4184  -9.4018  -3.8154  -3.7733  -2.1183  -2.0955   4.0653   4.2867
     8.9008   9.1061  15.8960  16.7400  17.3303  17.7247  20.5166  20.9417

     occupation numbers 
     1.0000   1.0000   1.0000   1.0000   1.0000   1.0000   1.0000   1.0000
     0.0000   0.0000   0.0000   0.0000   0.0000   0.0000   0.0000   0.0000

          k = 0.3750 0.7457 0.0470 (  2413 PWs)   bands (ev):

    -9.7745  -9.6911  -4.0328  -3.9591  -1.0520  -0.9840   3.1928   4.1235
     8.9163   9.8125  15.2762  16.3030  16.7895  17.1694  18.9798  22.1246

     occupation numbers 
     1.0000   1.0000   1.0000   1.0000   1.0000   1.0000   1.0000   1.0000
     0.0000   0.0000   0.0000   0.0000   0.0000   0.0000   0.0000   0.0000

          k = 0.3750 0.7457 0.1410 (  2410 PWs)   bands (ev):

    -9.7500  -9.7156  -4.0149  -3.9844  -1.0343  -1.0059   3.4799   3.8709
     9.0404   9.4161  15.8808  16.2463  16.8728  17.1479  19.7582  21.2058

     occupation numbers 
     1.0000   1.0000   1.0000   1.0000   1.0000   1.0000   1.0000   1.0000
     0.0000   0.0000   0.0000   0.0000   0.0000   0.0000   0.0000   0.0000

          k = 0.3750-0.3127 0.0470 (  2417 PWs)   bands (ev):

   -10.2617 -10.1257  -3.8151  -3.7394  -0.0161   0.0461   2.3656   3.6331
     9.3425  10.4176  13.8816  14.9532  16.3903  18.2521  19.2620  22.6902

     occupation numbers 
     1.0000   1.0000   1.0000   1.0000   1.0000   1.0000   1.0000   1.0000
     0.0000   0.0000   0.0000   0.0000   0.0000   0.0000   0.0000   0.0000

          k = 0.3750-0.3127 0.1410 (  2414 PWs)   bands (ev):

   -10.2224 -10.1661  -3.7971  -3.7657   0.0011   0.0271   2.7233   3.2490
     9.5237   9.9682  14.5433  14.9107  16.7234  17.4959  20.3612  21.6400

     occupation numbers 
     1.0000   1.0000   1.0000   1.0000   1.0000   1.0000   1.0000   1.0000
     0.0000   0.0000   0.0000   0.0000   0.0000   0.0000   0.0000   0.0000

          k = 0.3750-0.2165 0.0470 (  2418 PWs)   bands (ev):

   -10.7338 -10.5576  -3.2329  -3.1525   0.5369   0.5943   1.6231   3.1094
    10.1381  11.1287  13.0567  14.4718  15.8467  18.7263  19.9959  23.1334

     occupation numbers 
     1.0000   1.0000   1.0000   1.0000   1.0000   1.0000   1.0000   1.0000
     0.0000   0.0000   0.0000   0.0000   0.0000   0.0000   0.0000   0.0000

          k = 0.3750-0.2165 0.1410 (  2419 PWs)   bands (ev):

   -10.6834 -10.6106  -3.2138  -3.1802   0.5535   0.5773   2.0257   2.6377
    10.2863  10.6946  13.9253  14.4091  16.2227  17.3706  21.1676  22.2601

     occupation numbers 
     1.0000   1.0000   1.0000   1.0000   1.0000   1.0000   1.0000   1.0000
     0.0000   0.0000   0.0000   0.0000   0.0000   0.0000   0.0000   0.0000

          k = 0.4583 0.7939 0.0470 (  2413 PWs)   bands (ev):

    -9.8538  -9.7897  -4.3889  -4.3273  -0.1619  -0.0985   3.0765   3.9941
     8.5657   9.7729  14.3956  14.8875  16.8554  17.8491  18.6881  22.5818

     occupation numbers 
     1.0000   1.0000   1.0000   1.0000   1.0000   1.0000   1.0000   1.0000
     0.0000   0.0000   0.0000   0.0000   0.0000   0.0000   0.0000   0.0000

          k = 0.4583 0.7939 0.1410 (  2414 PWs)   bands (ev):

    -9.8347  -9.8083  -4.3755  -4.3500  -0.1442  -0.1178   3.3597   3.7460
     8.7637   9.2625  14.7148  14.8820  17.2844  17.5312  19.8810  21.4666

     occupation numbers 
     1.0000   1.0000   1.0000   1.0000   1.0000   1.0000   1.0000   1.0000
     0.0000   0.0000   0.0000   0.0000   0.0000   0.0000   0.0000   0.0000

          k = 0.4583-0.2646 0.0470 (  2413 PWs)   bands (ev):

   -10.0396  -9.9455  -4.3098  -4.2438   0.2562   0.3153   2.7536   3.8272
     8.7112   9.9842  13.8040  14.3420  16.4836  18.1620  19.3757  22.6435

     occupation numbers 
     1.0000   1.0000   1.0000   1.0000   1.0000   1.0000   1.0000   1.0000
     0.0000   0.0000   0.0000   0.0000   0.0000   0.0000   0.0000   0.0000

          k = 0.4583-0.2646 0.1410 (  2420 PWs)   bands (ev):

   -10.0120  -9.9731  -4.2952  -4.2678   0.2733   0.2978   3.0695   3.5183
     8.9321   9.4554  14.1530  14.3327  17.0623  17.7506  20.2728  21.5196

     occupation numbers 
     1.0000   1.0000   1.0000   1.0000   1.0000   1.0000   1.0000   1.0000
     0.0000   0.0000   0.0000   0.0000   0.0000   0.0000   0.0000   0.0000

     highest occupied, lowest unoccupied level (ev):     4.4204    8.5657

!    total energy              =     -53.18617817 Ry
     Harris-Foulkes estimate   =     -53.18617817 Ry
     estimated scf accuracy    <          9.4E-13 Ry

     The total energy is the sum of the following terms:

     one-electron contribution =     -16.65977311 Ry
     hartree contribution      =      16.40359942 Ry
     xc contribution           =     -16.33682042 Ry
     ewald contribution        =     -36.59318407 Ry

     convergence has been achieved in   9 iterations

     Forces acting on atoms (cartesian axes, Ry/au):

     atom    1 type  1   force =     0.00000000   -0.00000000    0.00000000
     atom    2 type  1   force =    -0.00000000   -0.00000000    0.00000000
     atom    3 type  2   force =     0.00000000    0.00000000    0.00000000
     atom    4 type  2   force =     0.00000000    0.00000000    0.00000000
     The non-local contrib.  to forces
     atom    1 type  1   force =     0.00000000   -0.00000000    0.00000000
     atom    2 type  1   force =    -0.00000000    0.00000000    0.00000000
     atom    3 type  2   force =     0.00000000   -0.00000000    0.00000000
     atom    4 type  2   force =    -0.00000000    0.00000000    0.00000000
     The ionic contribution  to forces
     atom    1 type  1   force =     0.00000002   -0.00000001   -0.00000000
     atom    2 type  1   force =    -0.00000002    0.00000001    0.00000000
     atom    3 type  2   force =     0.00000002   -0.00000001    0.00000000
     atom    4 type  2   force =    -0.00000002    0.00000001   -0.00000000
     The local contribution  to forces
     atom    1 type  1   force =    -0.00000000    0.00000000    0.00000000
     atom    2 type  1   force =     0.00000000   -0.00000000    0.00000000
     atom    3 type  2   force =     0.00000002   -0.00000001   -0.00000001
     atom    4 type  2   force =    -0.00000006    0.00000003   -0.00000001
     The core correction contribution to forces
     atom    1 type  1   force =    -0.00000000    0.00000000    0.00000000
     atom    2 type  1   force =     0.00000000   -0.00000000    0.00000000
     atom    3 type  2   force =     0.00000000    0.00000000    0.00000000
     atom    4 type  2   force =     0.00000000    0.00000000    0.00000000
     The Hubbard contrib.    to forces
     atom    1 type  1   force =     0.00000000    0.00000000    0.00000000
     atom    2 type  1   force =     0.00000000    0.00000000    0.00000000
     atom    3 type  2   force =     0.00000000    0.00000000    0.00000000
     atom    4 type  2   force =     0.00000000    0.00000000    0.00000000
     The SCF correction term to forces
     atom    1 type  1   force =     0.00000000   -0.00000000   -0.00000000
     atom    2 type  1   force =    -0.00000000    0.00000000   -0.00000000
     atom    3 type  2   force =     0.00000000   -0.00000000   -0.00000000
     atom    4 type  2   force =    -0.00000000    0.00000000   -0.00000000

     Total force =     0.000000     Total SCF correction =     0.000000


     Computing stress (Cartesian axis) and pressure

          total   stress  (Ry/bohr**3)                   (kbar)     P=      -75.70
  -0.00070607  -0.00000000   0.00000000         -103.87       -0.00        0.00
  -0.00000000  -0.00070607   0.00000000           -0.00     -103.87        0.00
   0.00000000   0.00000000  -0.00013163            0.00        0.00      -19.36

     kinetic stress (kbar)  14598.56     -0.00      0.00
                               -0.00  14598.56      0.00
                                0.00      0.00  15904.60

     local   stress (kbar) -19654.86     -0.00     -0.00
                               -0.00 -19654.86     -0.00
                               -0.00     -0.00  19614.43

     nonloc. stress (kbar)  -1635.69     -0.00      0.00
                               -0.00  -1635.69      0.00
                                0.00      0.00  -1615.63

     hartree stress (kbar)   7390.42     -0.00      0.00
                               -0.00   7390.42     -0.00
                                0.00     -0.00  -4894.89

     exc-cor stress (kbar)  -1775.69      0.00      0.00
                                0.00  -1775.69      0.00
                                0.00      0.00  -1775.69

     corecor stress (kbar)  -1097.70     -0.00     -0.00
                               -0.00  -1097.70     -0.00
                               -0.00     -0.00  -1056.41

     ewald   stress (kbar)   2071.08      0.00      0.00
                                0.00   2071.08      0.00
                                0.00      0.00 -26195.77

     hubbard stress (kbar)      0.00      0.00      0.00
                                0.00      0.00      0.00
                                0.00      0.00      0.00

     london  stress (kbar)      0.00      0.00      0.00
                                0.00      0.00      0.00
                                0.00      0.00      0.00

     DFT-D3  stress (kbar)      0.00      0.00      0.00
                                0.00      0.00      0.00
                                0.00      0.00      0.00

     XDM     stress (kbar)      0.00      0.00      0.00
                                0.00      0.00      0.00
                                0.00      0.00      0.00

     dft-nl  stress (kbar)      0.00      0.00      0.00
                                0.00      0.00      0.00
                                0.00      0.00      0.00

     TS-vdW  stress (kbar)      0.00      0.00      0.00
                                0.00      0.00      0.00
                                0.00      0.00      0.00



     Writing output data file ./BN.save/
 
     init_run     :      0.63s CPU      0.73s WALL (       1 calls)
     electrons    :      5.02s CPU      5.11s WALL (       1 calls)
     forces       :      0.05s CPU      0.05s WALL (       1 calls)
     stress       :      0.16s CPU      0.17s WALL (       1 calls)

     Called by init_run:
     wfcinit      :      0.57s CPU      0.61s WALL (       1 calls)
     wfcinit:atom :      0.01s CPU      0.02s WALL (      11 calls)
     wfcinit:wfcr :      0.51s CPU      0.53s WALL (      11 calls)
     potinit      :      0.01s CPU      0.01s WALL (       1 calls)
     hinit0       :      0.04s CPU      0.10s WALL (       1 calls)

     Called by electrons:
     c_bands      :      4.39s CPU      4.46s WALL (       9 calls)
     sum_band     :      0.56s CPU      0.57s WALL (       9 calls)
     v_of_rho     :      0.02s CPU      0.02s WALL (      10 calls)
     v_h          :      0.01s CPU      0.01s WALL (      10 calls)
     v_xc         :      0.02s CPU      0.02s WALL (      12 calls)
     mix_rho      :      0.04s CPU      0.04s WALL (       9 calls)

     Called by c_bands:
     init_us_2    :      0.12s CPU      0.12s WALL (     231 calls)
     cegterg      :      3.61s CPU      3.67s WALL (      99 calls)

     Called by sum_band:

     Called by *egterg:
     h_psi        :      3.28s CPU      3.33s WALL (     407 calls)
     g_psi        :      0.02s CPU      0.02s WALL (     297 calls)
     cdiaghg      :      0.16s CPU      0.17s WALL (     396 calls)
     cegterg:over :      0.27s CPU      0.27s WALL (     297 calls)
     cegterg:upda :      0.18s CPU      0.19s WALL (     297 calls)
     cegterg:last :      0.06s CPU      0.06s WALL (      99 calls)

     Called by h_psi:
     h_psi:calbec :      0.19s CPU      0.19s WALL (     407 calls)
     vloc_psi     :      2.89s CPU      2.93s WALL (     407 calls)
     add_vuspsi   :      0.17s CPU      0.17s WALL (     407 calls)

     General routines
     calbec       :      0.22s CPU      0.22s WALL (     462 calls)
     fft          :      0.02s CPU      0.07s WALL (      37 calls)
     ffts         :      0.00s CPU      0.00s WALL (       9 calls)
     fftw         :      2.95s CPU      2.98s WALL (   11744 calls)
 
     Parallel routines
 
     PWSCF        :      5.95s CPU      6.42s WALL

 
   This run was terminated on:  11:52:18   7Mar2022            

=------------------------------------------------------------------------------=
   JOB DONE.
=------------------------------------------------------------------------------=
