
     Program PWSCF v.6.4.1 starts on  1Jul2020 at 11:50:35 

     This program is part of the open-source Quantum ESPRESSO suite
     for quantum simulation of materials; please cite
         "P. Giannozzi et al., J. Phys.:Condens. Matter 21 395502 (2009);
         "P. Giannozzi et al., J. Phys.:Condens. Matter 29 465901 (2017);
          URL http://www.quantum-espresso.org", 
     in publications or presentations arising from this work. More details at
     http://www.quantum-espresso.org/quote

     Parallel version (MPI), running on     6 processors

     MPI processes distributed on     1 nodes
     K-points division:     npool     =       6
     Waiting for input...
     Reading input from standard input
     Message from routine read_cards :
     DEPRECATED: no units specified in CELL_PARAMETERS card
Warning: card &IONS ignored
Warning: card / ignored
Warning: card &CELL ignored
Warning: card / ignored

     Current dimensions of program PWSCF are:
     Max number of different atomic species (ntypx) = 10
     Max number of k-points (npk) =  40000
     Max angular momentum in pseudopotentials (lmaxx) =  3

     Atomic positions and unit cell read from directory:
     ./BN.save/
 
     Message from routine readpp:
     file ./BN.save/b.cpi.UPF not found
     Message from routine readpp:
     file ./BN.save/n.cpi.UPF not found
               file b.cpi.UPF: wavefunction(s)  3d 4f renormalized
               file n.cpi.UPF: wavefunction(s)  3d 4f renormalized

     Subspace diagonalization in iterative solution of the eigenvalue problem:
     a serial algorithm will be used

     Message from routine setup:
     DEPRECATED: symmetry with ibrav=0, use correct ibrav instead
 
     G-vector sticks info
     --------------------
     sticks:   dense  smooth     PW     G-vecs:    dense   smooth      PW
     Sum         433     433    151                58197    58197   11981
 


     bravais-lattice index     =            0
     lattice parameter (alat)  =       4.7319  a.u.
     unit-cell volume          =     734.0406 (a.u.)^3
     number of atoms/cell      =            2
     number of atomic types    =            2
     number of electrons       =         8.00
     number of Kohn-Sham states=         4010
     kinetic-energy cutoff     =      70.0000  Ry
     charge density cutoff     =     280.0000  Ry
     Exchange-correlation      = SLA  PZ   NOGX NOGC ( 1  1  0  0 0 0)

     celldm(1)=   4.731874  celldm(2)=   0.000000  celldm(3)=   0.000000
     celldm(4)=   0.000000  celldm(5)=   0.000000  celldm(6)=   0.000000

     crystal axes: (cart. coord. in units of alat)
               a(1) = (   1.000000   0.000000   0.000000 )  
               a(2) = (  -0.500000   0.866025   0.000000 )  
               a(3) = (   0.000000   0.000000   8.000000 )  

     reciprocal axes: (cart. coord. in units 2 pi/alat)
               b(1) = (  1.000000  0.577350  0.000000 )  
               b(2) = (  0.000000  1.154701  0.000000 )  
               b(3) = (  0.000000  0.000000  0.125000 )  


     PseudoPot. # 1 for B  read from file:
     ./b.cpi.UPF
     MD5 check sum: aadced629ac320abbac2d4088521b25e
     Pseudo is Norm-conserving + core correction, Zval =  3.0
     Generated by new atomic code, or converted to UPF format
     Using radial grid of  453 points,  3 beta functions with: 
                l(1) =   0
                l(2) =   1
                l(3) =   2

     PseudoPot. # 2 for N  read from file:
     ./n.cpi.UPF
     MD5 check sum: ff6dad263d6aed986b71703111ab3f52
     Pseudo is Norm-conserving, Zval =  5.0
     Generated by new atomic code, or converted to UPF format
     Using radial grid of  467 points,  3 beta functions with: 
                l(1) =   0
                l(2) =   1
                l(3) =   2

     atomic species   valence    mass     pseudopotential
        B              3.00    10.81100     B ( 1.00)
        N              5.00    14.00700     N ( 1.00)

     12 Sym. Ops. (no inversion) found


                                    s                        frac. trans.

      isym =  1     identity                                     

 cryst.   s( 1) = (     1          0          0      )
                  (     0          1          0      )
                  (     0          0          1      )

 cart.    s( 1) = (  1.0000000  0.0000000  0.0000000 )
                  (  0.0000000  1.0000000  0.0000000 )
                  (  0.0000000  0.0000000  1.0000000 )


      isym =  2     180 deg rotation - cart. axis [0,1,0]        

 cryst.   s( 2) = (    -1          0          0      )
                  (     1          1          0      )
                  (     0          0         -1      )

 cart.    s( 2) = ( -1.0000000  0.0000000  0.0000000 )
                  (  0.0000000  1.0000000  0.0000000 )
                  (  0.0000000  0.0000000 -1.0000000 )


      isym =  3     120 deg rotation - cryst. axis [0,0,1]       

 cryst.   s( 3) = (     0          1          0      )
                  (    -1         -1          0      )
                  (     0          0          1      )

 cart.    s( 3) = ( -0.5000000 -0.8660254  0.0000000 )
                  (  0.8660254 -0.5000000  0.0000000 )
                  (  0.0000000  0.0000000  1.0000000 )


      isym =  4     120 deg rotation - cryst. axis [0,0,-1]      

 cryst.   s( 4) = (    -1         -1          0      )
                  (     1          0          0      )
                  (     0          0          1      )

 cart.    s( 4) = ( -0.5000000  0.8660254  0.0000000 )
                  ( -0.8660254 -0.5000000  0.0000000 )
                  (  0.0000000  0.0000000  1.0000000 )


      isym =  5     180 deg rotation - cryst. axis [1,-1,0]      

 cryst.   s( 5) = (     0         -1          0      )
                  (    -1          0          0      )
                  (     0          0         -1      )

 cart.    s( 5) = (  0.5000000 -0.8660254  0.0000000 )
                  ( -0.8660254 -0.5000000  0.0000000 )
                  (  0.0000000  0.0000000 -1.0000000 )


      isym =  6     180 deg rotation - cryst. axis [2,1,0]       

 cryst.   s( 6) = (     1          1          0      )
                  (     0         -1          0      )
                  (     0          0         -1      )

 cart.    s( 6) = (  0.5000000  0.8660254  0.0000000 )
                  (  0.8660254 -0.5000000  0.0000000 )
                  (  0.0000000  0.0000000 -1.0000000 )


      isym =  7     inv. 180 deg rotation - cart. axis [0,0,1]   

 cryst.   s( 7) = (     1          0          0      )
                  (     0          1          0      )
                  (     0          0         -1      )

 cart.    s( 7) = (  1.0000000  0.0000000  0.0000000 )
                  (  0.0000000  1.0000000  0.0000000 )
                  (  0.0000000  0.0000000 -1.0000000 )


      isym =  8     inv. 180 deg rotation - cart. axis [1,0,0]   

 cryst.   s( 8) = (    -1          0          0      )
                  (     1          1          0      )
                  (     0          0          1      )

 cart.    s( 8) = ( -1.0000000  0.0000000  0.0000000 )
                  (  0.0000000  1.0000000  0.0000000 )
                  (  0.0000000  0.0000000  1.0000000 )


      isym =  9     inv.  60 deg rotation - cryst. axis [0,0,1]  

 cryst.   s( 9) = (    -1         -1          0      )
                  (     1          0          0      )
                  (     0          0         -1      )

 cart.    s( 9) = ( -0.5000000  0.8660254  0.0000000 )
                  ( -0.8660254 -0.5000000  0.0000000 )
                  (  0.0000000  0.0000000 -1.0000000 )


      isym = 10     inv.  60 deg rotation - cryst. axis [0,0,-1] 

 cryst.   s(10) = (     0          1          0      )
                  (    -1         -1          0      )
                  (     0          0         -1      )

 cart.    s(10) = ( -0.5000000 -0.8660254  0.0000000 )
                  (  0.8660254 -0.5000000  0.0000000 )
                  (  0.0000000  0.0000000 -1.0000000 )


      isym = 11     inv. 180 deg rotation - cryst. axis [0,1,0]  

 cryst.   s(11) = (     1          1          0      )
                  (     0         -1          0      )
                  (     0          0          1      )

 cart.    s(11) = (  0.5000000  0.8660254  0.0000000 )
                  (  0.8660254 -0.5000000  0.0000000 )
                  (  0.0000000  0.0000000  1.0000000 )


      isym = 12     inv. 180 deg rotation - cryst. axis [1,1,0]  

 cryst.   s(12) = (     0         -1          0      )
                  (    -1          0          0      )
                  (     0          0          1      )

 cart.    s(12) = (  0.5000000 -0.8660254  0.0000000 )
                  ( -0.8660254 -0.5000000  0.0000000 )
                  (  0.0000000  0.0000000  1.0000000 )


   Cartesian axes

     site n.     atom                  positions (alat units)
         1           B   tau(   1) = (  -0.0000000   0.5773503   4.0000000  )
         2           N   tau(   2) = (   0.5000000   0.2886751   4.0000000  )

   Crystallographic axes

     site n.     atom                  positions (cryst. coord.)
         1           B   tau(   1) = (  0.3333333  0.6666667  0.5000000  )
         2           N   tau(   2) = (  0.6666667  0.3333333  0.5000000  )

     number of k points=    78
                       cart. coord. in units 2pi/alat
        k(    1) = (   0.0416667   0.0721688   0.0000000), wk =   0.0277778
        k(    2) = (   0.0416667   0.1683938   0.0000000), wk =   0.0277778
        k(    3) = (   0.0416667   0.2646189   0.0000000), wk =   0.0277778
        k(    4) = (   0.0416667   0.3608439   0.0000000), wk =   0.0277778
        k(    5) = (   0.0416667   0.4570690   0.0000000), wk =   0.0277778
        k(    6) = (   0.0416667   0.5532940   0.0000000), wk =   0.0277778
        k(    7) = (   0.0416667   0.6495191   0.0000000), wk =   0.0277778
        k(    8) = (   0.0416667   0.7457441   0.0000000), wk =   0.0277778
        k(    9) = (   0.0416667   0.8419691   0.0000000), wk =   0.0277778
        k(   10) = (   0.0416667   0.9381942   0.0000000), wk =   0.0277778
        k(   11) = (   0.0416667   1.0344192   0.0000000), wk =   0.0277778
        k(   12) = (   0.0416667   1.1306443   0.0000000), wk =   0.0138889
        k(   13) = (   0.1250000   0.1202813   0.0000000), wk =   0.0277778
        k(   14) = (   0.1250000   0.2165064   0.0000000), wk =   0.0277778
        k(   15) = (   0.1250000   0.3127314   0.0000000), wk =   0.0277778
        k(   16) = (   0.1250000   0.4089564   0.0000000), wk =   0.0277778
        k(   17) = (   0.1250000   0.5051815   0.0000000), wk =   0.0277778
        k(   18) = (   0.1250000   0.6014065   0.0000000), wk =   0.0277778
        k(   19) = (   0.1250000   0.6976316   0.0000000), wk =   0.0277778
        k(   20) = (   0.1250000   0.7938566   0.0000000), wk =   0.0277778
        k(   21) = (   0.1250000   0.8900817   0.0000000), wk =   0.0277778
        k(   22) = (   0.1250000   0.9863067   0.0000000), wk =   0.0277778
        k(   23) = (   0.1250000   1.0825318   0.0000000), wk =   0.0138889
        k(   24) = (   0.2083333   0.1683938   0.0000000), wk =   0.0277778
        k(   25) = (   0.2083333   0.2646189   0.0000000), wk =   0.0277778
        k(   26) = (   0.2083333   0.3608439   0.0000000), wk =   0.0277778
        k(   27) = (   0.2083333   0.4570690   0.0000000), wk =   0.0277778
        k(   28) = (   0.2083333   0.5532940   0.0000000), wk =   0.0277778
        k(   29) = (   0.2083333   0.6495191   0.0000000), wk =   0.0277778
        k(   30) = (   0.2083333   0.7457441   0.0000000), wk =   0.0277778
        k(   31) = (   0.2083333   0.8419691   0.0000000), wk =   0.0277778
        k(   32) = (   0.2083333   0.9381942   0.0000000), wk =   0.0277778
        k(   33) = (   0.2083333   1.0344192   0.0000000), wk =   0.0138889
        k(   34) = (   0.2916667   0.2165064   0.0000000), wk =   0.0277778
        k(   35) = (   0.2916667   0.3127314   0.0000000), wk =   0.0277778
        k(   36) = (   0.2916667   0.4089564   0.0000000), wk =   0.0277778
        k(   37) = (   0.2916667   0.5051815   0.0000000), wk =   0.0277778
        k(   38) = (   0.2916667   0.6014065   0.0000000), wk =   0.0277778
        k(   39) = (   0.2916667   0.6976316   0.0000000), wk =   0.0277778
        k(   40) = (   0.2916667   0.7938566   0.0000000), wk =   0.0277778
        k(   41) = (   0.2916667   0.8900817   0.0000000), wk =   0.0277778
        k(   42) = (   0.2916667   0.9863067   0.0000000), wk =   0.0138889
        k(   43) = (   0.3750000   0.2646189   0.0000000), wk =   0.0277778
        k(   44) = (   0.3750000   0.3608439   0.0000000), wk =   0.0277778
        k(   45) = (   0.3750000   0.4570690   0.0000000), wk =   0.0277778
        k(   46) = (   0.3750000   0.5532940   0.0000000), wk =   0.0277778
        k(   47) = (   0.3750000   0.6495191   0.0000000), wk =   0.0277778
        k(   48) = (   0.3750000   0.7457441   0.0000000), wk =   0.0277778
        k(   49) = (   0.3750000   0.8419691   0.0000000), wk =   0.0277778
        k(   50) = (   0.3750000   0.9381942   0.0000000), wk =   0.0138889
        k(   51) = (   0.4583333   0.3127314   0.0000000), wk =   0.0277778
        k(   52) = (   0.4583333   0.4089564   0.0000000), wk =   0.0277778
        k(   53) = (   0.4583333   0.5051815   0.0000000), wk =   0.0277778
        k(   54) = (   0.4583333   0.6014065   0.0000000), wk =   0.0277778
        k(   55) = (   0.4583333   0.6976316   0.0000000), wk =   0.0277778
        k(   56) = (   0.4583333   0.7938566   0.0000000), wk =   0.0277778
        k(   57) = (   0.4583333   0.8900817   0.0000000), wk =   0.0138889
        k(   58) = (   0.5416667   0.3608439   0.0000000), wk =   0.0277778
        k(   59) = (   0.5416667   0.4570690   0.0000000), wk =   0.0277778
        k(   60) = (   0.5416667   0.5532940   0.0000000), wk =   0.0277778
        k(   61) = (   0.5416667   0.6495191   0.0000000), wk =   0.0277778
        k(   62) = (   0.5416667   0.7457441   0.0000000), wk =   0.0277778
        k(   63) = (   0.5416667   0.8419691   0.0000000), wk =   0.0138889
        k(   64) = (   0.6250000   0.4089564   0.0000000), wk =   0.0277778
        k(   65) = (   0.6250000   0.5051815   0.0000000), wk =   0.0277778
        k(   66) = (   0.6250000   0.6014065   0.0000000), wk =   0.0277778
        k(   67) = (   0.6250000   0.6976316   0.0000000), wk =   0.0277778
        k(   68) = (   0.6250000   0.7938566   0.0000000), wk =   0.0138889
        k(   69) = (   0.7083333   0.4570690   0.0000000), wk =   0.0277778
        k(   70) = (   0.7083333   0.5532940   0.0000000), wk =   0.0277778
        k(   71) = (   0.7083333   0.6495191   0.0000000), wk =   0.0277778
        k(   72) = (   0.7083333   0.7457441   0.0000000), wk =   0.0138889
        k(   73) = (   0.7916667   0.5051815   0.0000000), wk =   0.0277778
        k(   74) = (   0.7916667   0.6014065   0.0000000), wk =   0.0277778
        k(   75) = (   0.7916667   0.6976316   0.0000000), wk =   0.0138889
        k(   76) = (   0.8750000   0.5532940   0.0000000), wk =   0.0277778
        k(   77) = (   0.8750000   0.6495191   0.0000000), wk =   0.0138889
        k(   78) = (   0.9583333   0.6014065   0.0000000), wk =   0.0138889

                       cryst. coord.
        k(    1) = (   0.0416667   0.0416667   0.0000000), wk =   0.0277778
        k(    2) = (   0.0416667   0.1250000   0.0000000), wk =   0.0277778
        k(    3) = (   0.0416667   0.2083333   0.0000000), wk =   0.0277778
        k(    4) = (   0.0416667   0.2916667   0.0000000), wk =   0.0277778
        k(    5) = (   0.0416667   0.3750000   0.0000000), wk =   0.0277778
        k(    6) = (   0.0416667   0.4583333   0.0000000), wk =   0.0277778
        k(    7) = (   0.0416667   0.5416667   0.0000000), wk =   0.0277778
        k(    8) = (   0.0416667   0.6250000   0.0000000), wk =   0.0277778
        k(    9) = (   0.0416667   0.7083333   0.0000000), wk =   0.0277778
        k(   10) = (   0.0416667   0.7916667   0.0000000), wk =   0.0277778
        k(   11) = (   0.0416667   0.8750000   0.0000000), wk =   0.0277778
        k(   12) = (   0.0416667   0.9583333   0.0000000), wk =   0.0138889
        k(   13) = (   0.1250000   0.0416667   0.0000000), wk =   0.0277778
        k(   14) = (   0.1250000   0.1250000   0.0000000), wk =   0.0277778
        k(   15) = (   0.1250000   0.2083333   0.0000000), wk =   0.0277778
        k(   16) = (   0.1250000   0.2916667   0.0000000), wk =   0.0277778
        k(   17) = (   0.1250000   0.3750000   0.0000000), wk =   0.0277778
        k(   18) = (   0.1250000   0.4583333   0.0000000), wk =   0.0277778
        k(   19) = (   0.1250000   0.5416667   0.0000000), wk =   0.0277778
        k(   20) = (   0.1250000   0.6250000   0.0000000), wk =   0.0277778
        k(   21) = (   0.1250000   0.7083333   0.0000000), wk =   0.0277778
        k(   22) = (   0.1250000   0.7916667   0.0000000), wk =   0.0277778
        k(   23) = (   0.1250000   0.8750000   0.0000000), wk =   0.0138889
        k(   24) = (   0.2083333   0.0416667   0.0000000), wk =   0.0277778
        k(   25) = (   0.2083333   0.1250000   0.0000000), wk =   0.0277778
        k(   26) = (   0.2083333   0.2083333   0.0000000), wk =   0.0277778
        k(   27) = (   0.2083333   0.2916667   0.0000000), wk =   0.0277778
        k(   28) = (   0.2083333   0.3750000   0.0000000), wk =   0.0277778
        k(   29) = (   0.2083333   0.4583333   0.0000000), wk =   0.0277778
        k(   30) = (   0.2083333   0.5416667   0.0000000), wk =   0.0277778
        k(   31) = (   0.2083333   0.6250000   0.0000000), wk =   0.0277778
        k(   32) = (   0.2083333   0.7083333   0.0000000), wk =   0.0277778
        k(   33) = (   0.2083333   0.7916667   0.0000000), wk =   0.0138889
        k(   34) = (   0.2916667   0.0416667   0.0000000), wk =   0.0277778
        k(   35) = (   0.2916667   0.1250000   0.0000000), wk =   0.0277778
        k(   36) = (   0.2916667   0.2083333   0.0000000), wk =   0.0277778
        k(   37) = (   0.2916667   0.2916667   0.0000000), wk =   0.0277778
        k(   38) = (   0.2916667   0.3750000   0.0000000), wk =   0.0277778
        k(   39) = (   0.2916667   0.4583333   0.0000000), wk =   0.0277778
        k(   40) = (   0.2916667   0.5416667   0.0000000), wk =   0.0277778
        k(   41) = (   0.2916667   0.6250000   0.0000000), wk =   0.0277778
        k(   42) = (   0.2916667   0.7083333   0.0000000), wk =   0.0138889
        k(   43) = (   0.3750000   0.0416667   0.0000000), wk =   0.0277778
        k(   44) = (   0.3750000   0.1250000   0.0000000), wk =   0.0277778
        k(   45) = (   0.3750000   0.2083333   0.0000000), wk =   0.0277778
        k(   46) = (   0.3750000   0.2916667   0.0000000), wk =   0.0277778
        k(   47) = (   0.3750000   0.3750000   0.0000000), wk =   0.0277778
        k(   48) = (   0.3750000   0.4583333   0.0000000), wk =   0.0277778
        k(   49) = (   0.3750000   0.5416667   0.0000000), wk =   0.0277778
        k(   50) = (   0.3750000   0.6250000   0.0000000), wk =   0.0138889
        k(   51) = (   0.4583333   0.0416667   0.0000000), wk =   0.0277778
        k(   52) = (   0.4583333   0.1250000   0.0000000), wk =   0.0277778
        k(   53) = (   0.4583333   0.2083333   0.0000000), wk =   0.0277778
        k(   54) = (   0.4583333   0.2916667   0.0000000), wk =   0.0277778
        k(   55) = (   0.4583333   0.3750000   0.0000000), wk =   0.0277778
        k(   56) = (   0.4583333   0.4583333   0.0000000), wk =   0.0277778
        k(   57) = (   0.4583333   0.5416667   0.0000000), wk =   0.0138889
        k(   58) = (   0.5416667   0.0416667   0.0000000), wk =   0.0277778
        k(   59) = (   0.5416667   0.1250000   0.0000000), wk =   0.0277778
        k(   60) = (   0.5416667   0.2083333   0.0000000), wk =   0.0277778
        k(   61) = (   0.5416667   0.2916667   0.0000000), wk =   0.0277778
        k(   62) = (   0.5416667   0.3750000   0.0000000), wk =   0.0277778
        k(   63) = (   0.5416667   0.4583333   0.0000000), wk =   0.0138889
        k(   64) = (   0.6250000   0.0416667   0.0000000), wk =   0.0277778
        k(   65) = (   0.6250000   0.1250000   0.0000000), wk =   0.0277778
        k(   66) = (   0.6250000   0.2083333   0.0000000), wk =   0.0277778
        k(   67) = (   0.6250000   0.2916667   0.0000000), wk =   0.0277778
        k(   68) = (   0.6250000   0.3750000   0.0000000), wk =   0.0138889
        k(   69) = (   0.7083333   0.0416667   0.0000000), wk =   0.0277778
        k(   70) = (   0.7083333   0.1250000   0.0000000), wk =   0.0277778
        k(   71) = (   0.7083333   0.2083333   0.0000000), wk =   0.0277778
        k(   72) = (   0.7083333   0.2916667   0.0000000), wk =   0.0138889
        k(   73) = (   0.7916667   0.0416667   0.0000000), wk =   0.0277778
        k(   74) = (   0.7916667   0.1250000   0.0000000), wk =   0.0277778
        k(   75) = (   0.7916667   0.2083333   0.0000000), wk =   0.0138889
        k(   76) = (   0.8750000   0.0416667   0.0000000), wk =   0.0277778
        k(   77) = (   0.8750000   0.1250000   0.0000000), wk =   0.0138889
        k(   78) = (   0.9583333   0.0416667   0.0000000), wk =   0.0138889

     Dense  grid:    58197 G-vectors     FFT dimensions: (  25,  25, 216)

     Dynamical RAM for                 wfc:     444.22 MB

     Dynamical RAM for     wfc (w. buffer):     444.22 MB

     Dynamical RAM for           str. fact:       1.78 MB

     Dynamical RAM for           local pot:       0.00 MB

     Dynamical RAM for          nlocal pot:       1.99 MB

     Dynamical RAM for                qrad:       0.58 MB

     Dynamical RAM for          rho,v,vnew:       5.75 MB

     Dynamical RAM for           G-vectors:       3.77 MB

     Dynamical RAM for          h,s,v(r/c):     736.09 MB

     Dynamical RAM for          <psi|beta>:       1.10 MB

     Dynamical RAM for      wfcinit/wfcrot:    1256.52 MB

     Estimated static dynamical RAM per process >     465.91 MB

     Estimated max dynamical RAM per process >       1.68 GB

     Estimated total dynamical RAM >      10.09 GB

     Check: negative core charge=   -0.000010

     The potential is recalculated from file :
     ./BN.save/charge-density

     Starting wfcs are   32 randomized atomic wfcs + 3978 random wfcs

     Band Structure Calculation
     CG style diagonalization

     Computing kpt #:     1
     c_bands:  7 eigenvalues not converged
     total cpu time spent up to now is    13360.8 secs

     Computing kpt #:     2
     c_bands:  9 eigenvalues not converged
     total cpu time spent up to now is    28247.7 secs

     Computing kpt #:     3
     c_bands: 15 eigenvalues not converged
     total cpu time spent up to now is    42971.9 secs

     Computing kpt #:     4
     c_bands: 10 eigenvalues not converged
     total cpu time spent up to now is    57490.2 secs

     Computing kpt #:     5
     c_bands: 10 eigenvalues not converged
     total cpu time spent up to now is    71487.7 secs

     Computing kpt #:     6
     c_bands: 11 eigenvalues not converged
     total cpu time spent up to now is    86191.0 secs

     Computing kpt #:     7
     c_bands: 12 eigenvalues not converged
     total cpu time spent up to now is   100954.0 secs

     Computing kpt #:     8
     c_bands: 17 eigenvalues not converged
     total cpu time spent up to now is   114478.0 secs

     Computing kpt #:     9
     c_bands: 12 eigenvalues not converged
     total cpu time spent up to now is   127521.0 secs

     Computing kpt #:    10
     c_bands:  4 eigenvalues not converged
     total cpu time spent up to now is   140578.4 secs

     Computing kpt #:    11
     c_bands: 12 eigenvalues not converged
     total cpu time spent up to now is   153214.4 secs

     Computing kpt #:    12
     c_bands:  7 eigenvalues not converged
     total cpu time spent up to now is   165930.8 secs

     Computing kpt #:    13
     c_bands: 10 eigenvalues not converged
     total cpu time spent up to now is   178675.7 secs

     ethr =  1.25E-12,  avg # of iterations = 60.4

     total cpu time spent up to now is   178675.7 secs

     End of band structure calculation

          k = 0.0417 0.0722 0.0000 (  7281 PWs)   bands (ev):

   -21.7151  -9.5344  -6.1590  -5.9530   0.5318   1.3153   1.3565   2.4066
     2.7118   4.3740   4.9558   6.9093   7.0314   7.4909   7.7917   8.8138
    10.0324  11.6941  12.8517  15.9798  17.2730  20.8929  21.0184  22.7393
    23.7868  24.5034  26.0573  28.1665  28.2243  28.7307  28.9656  29.3272
    29.3773  29.4545  29.5815  29.7030  30.6357  30.6669  30.7122  30.9415
    31.8902  32.2100  32.4522  32.6591  32.8956  33.1635  33.1969  33.3384
    33.4440  33.4463  33.5229  34.4509  34.5804  34.6906  34.6927  35.2191
    35.4755  35.6101  35.8319  36.1328  36.2915  36.4232  36.4886  36.8605
    37.0324  37.1190  37.1855  37.3080  37.4621  37.4859  37.5557  38.3930
    38.5105  38.6591  38.9005  39.2084  39.5257  39.7055  40.0016  40.0932
    40.1267  40.2539  40.4348  40.8339  40.8475  41.0878  41.2036  42.3485
    42.9396  43.0046  43.0271  43.6580  43.9870  44.0113  44.0839  44.1888
    44.5540  44.6289  44.6834  45.1668  45.2654  46.4158  46.4830  47.1082
    48.1210  48.1423  48.5106  48.5719  48.6537  49.2084  49.7981  49.9516
    50.0467  50.6638  50.9958  51.4705  52.1017  52.2771  52.8330  53.1479
    53.4951  53.9279  54.3284  54.3929  55.0756  55.8594  56.5471  56.5922
    57.1397  57.6414  58.2558  58.2853  58.9366  59.5780  60.1809  60.4682
    61.1013  61.2256  61.4265  62.6892  63.4019  63.8125  64.0766  64.0817
    64.4550  64.7951  65.1362  66.6356  66.8415  67.2767  67.6222  67.8422
    69.2873  69.6216  70.3223  70.7428  71.1257  71.3467  71.5597  71.8797
    72.1003  72.2247  72.2856  74.6382  75.1030  75.1081  75.6978  77.2844
    77.7310  78.4522  78.4850  78.7445  79.5024  79.7554  79.8013  79.9716
    80.8026  81.3481  82.3943  83.0698  83.1702  83.5652  84.0343  84.0764
    85.2001  85.6589  85.8429  86.8422  87.1447  87.9421  88.5084  88.6135
    88.7849  88.8475  89.3258  89.4054  89.6473  89.6852  90.2960  90.7832
    90.8350  91.1543  92.2357  92.5410  92.6050  92.9409  92.9481  93.2390
    93.3273  93.4426  93.4874  93.5679  93.7987  93.8558  94.1201  94.2542
    94.3670  94.6451  94.7756  94.8362  94.8934  95.9202  96.1865  96.4510
    96.7748  96.9554  96.9897  97.0254  97.3599  97.5061  97.8720  98.3985
    98.6410  98.7641  98.8719  99.1217  99.2818  99.7888  99.9921 100.1938
   100.2327 100.3233 100.3715 100.6817 100.7998 101.2497 101.3427 101.4387
   101.4440 102.2246 102.2504 102.6028 102.7089 102.8706 103.0431 103.1604
   103.4052 103.7729 103.9339 103.9734 104.2929 104.4331 104.4931 104.7028
   104.7586 104.8707 104.9482 105.1664 105.2984 105.3270 105.4298 105.6311
   106.3555 106.4758 106.5935 106.7421 107.0576 107.6643 107.6806 107.9767
   108.0113 108.1848 108.2610 108.3876 108.4393 108.6597 108.7503 108.8606
   108.9812 109.0062 109.1968 109.9546 110.1106 110.7739 110.9140 111.1786
   111.5127 111.6262 111.8757 112.0621 112.2137 112.2784 112.8576 113.0204
   113.3321 113.9721 114.0637 114.3741 114.4309 114.6107 114.6265 114.7109
   115.1376 115.5857 116.1090 116.4858 116.5118 116.5656 116.6581 116.8056
   117.1175 117.3426 117.9330 118.0206 118.5672 119.3447 119.6128 120.0350
   120.0733 120.2160 120.3116 120.6037 120.6556 120.6926 120.7556 121.0587
   121.2981 121.3110 121.4368 121.5156 121.7757 121.8584 121.9657 122.1339
   122.2036 122.2532 122.4709 122.6141 122.6671 122.7085 122.7278 122.9037
   123.0120 123.6357 123.7298 124.8502 124.9103 124.9862 125.0640 125.1835
   125.5166 125.7474 125.8906 126.1014 126.2114 127.1205 127.3236 127.4508
   127.7567 127.8581 128.0117 128.0915 128.1243 128.2665 128.3170 128.4005
   128.4359 128.6459 128.6688 128.7725 129.2801 129.3052 129.4530 129.4758
   129.6323 129.9496 130.2130 130.5778 130.6098 130.6727 130.7038 130.8110
   130.9087 131.0246 131.2358 131.7160 131.9213 132.1077 132.2210 132.5188
   132.5401 132.8405 132.8538 132.9241 133.0004 133.0173 133.1590 133.3815
   133.7196 134.5813 134.6197 134.7976 134.9944 135.1409 135.4609 135.5651
   135.6736 135.6842 135.7050 135.8641 136.0802 136.1190 136.1496 136.2828
   136.5459 136.7558 136.8204 136.8439 136.9009 137.2901 137.2915 137.3769
   137.4563 137.6985 138.1641 138.2266 138.2906 138.5682 138.6369 138.7168
   138.7680 139.3763 139.3911 139.7631 139.8295 139.9687 140.0101 140.0150
   140.1474 140.7463 140.7625 141.0167 141.0849 141.4747 141.5514 141.9500
   142.0738 142.2013 142.3136 142.3802 142.5852 142.9069 143.1587 143.3124
   143.5272 143.8351 143.8726 143.9101 143.9669 144.0863 144.1610 144.2209
   144.2579 144.6733 144.8302 144.8737 144.9370 145.9712 146.6144 146.6682
   147.0928 147.2283 147.2362 147.7767 147.8731 148.0218 148.1826 148.2110
   148.2636 148.3626 148.3892 148.5108 148.5232 149.5411 149.5800 149.7758
   149.9834 150.1052 150.2528 150.6722 150.9596 151.0060 151.3584 151.8887
   151.9829 151.9924 152.0014 152.4503 152.6039 152.8022 152.8958 153.1471
   153.2044 153.3070 153.4865 154.5703 154.6223 155.1805 155.1996 155.3227
   155.4648 155.5864 155.6622 156.0965 156.2337 156.4081 156.5481 156.5836
   156.6565 157.8895 158.1006 158.2677 158.3652 158.7540 159.1637 159.9168
   160.4761 160.6072 160.7185 161.1186 161.2182 161.3916 161.5054 162.1949
   162.4443 162.6365 162.8326 162.9931 163.1646 163.2512 163.2632 163.3495
   163.4340 163.7719 163.7946 163.9397 164.0098 164.2866 164.3164 164.4596
   164.4625 165.0492 165.1551 165.3588 165.4458 165.4648 165.4667 167.6379
   168.2996 168.6336 169.1993 169.2055 169.6833 169.8195 170.2387 170.8172
   170.8363 170.8694 171.1783 171.2666 171.3027 171.5716 171.7163 171.7951
   171.9778 171.9992 172.0335 172.1116 172.1792 172.7813 173.7677 173.8192
   174.1440 174.2352 174.6733 174.8749 175.2310 175.2593 175.3868 176.1012
   176.2389 178.0818 178.6702 178.8222 179.1754 179.3213 179.4087 179.5263
   179.6613 179.7000 179.8161 180.0122 180.0416 180.3542 180.3781 180.8577
   180.9760 181.1149 181.2390 181.5856 182.0062 182.1494 182.1765 182.2838
   182.3733 183.1692 183.2304 183.8601 184.1917 184.2463 184.9971 185.5527
   185.6663 185.7398 186.0499 186.1119 186.4190 187.6475 187.9294 188.1561
   188.2392 188.6994 189.1442 189.4187 189.7018 189.8164 189.8709 191.0973
   191.1558 191.3083 191.3575 191.3850 191.4854 191.7445 192.2822 192.9457
   193.4545 193.5632 193.8960 194.1576 194.2200 194.6168 194.6639 194.9811
   195.0531 195.5165 196.1807 196.3286 196.7427 196.9557 197.1027 197.5907
   197.8397 197.9070 198.0646 198.0674 198.1102 198.3065 198.7311 198.7362
   199.0750 199.3364 199.3733 199.5492 199.5918 199.8337 199.8718 200.9862
   201.0370 202.2358 202.2856 202.2974 204.2436 205.1395 205.3180 205.7595
   205.8692 206.1788 206.2636 206.3706 206.8117 207.1267 207.2782 207.4569
   207.5412 207.6368 207.8142 208.0078 208.0100 208.9474 209.2204 209.2412
   209.9235 210.0278 210.2197 210.2644 210.4120 210.4767 210.5187 210.5820
   210.7666 210.9097 211.6618 211.6752 211.7970 211.8358 211.8767 212.5865
   213.1996 213.2770 213.2838 213.4545 213.4833 213.6683 213.7009 213.7944
   213.9279 213.9873 214.4428 214.5290 214.6213 214.6720 214.7555 214.8289
   214.8356 214.8918 215.2031 215.7935 215.8541 216.1694 216.2821 216.7392
   216.7843 217.0554 217.0995 217.2370 217.2528 217.4256 217.4321 217.5462
   217.9290 218.0295 218.1370 218.5248 218.5872 218.7053 218.7247 219.1285
   219.1872 219.2912 219.4244 219.7215 219.8129 220.0632 220.1167 220.1977
   220.2827 220.5685 220.7479 220.8953 220.9002 220.9552 221.0198 221.0230
   221.0724 221.2408 221.2623 221.4600 221.4798 221.7173 221.8800 222.1590
   222.2242 222.5714 222.6064 222.7438 222.7587 222.8838 223.1384 223.2514
   223.3654 223.6594 223.7236 223.8358 223.8758 224.0522 224.0688 224.2583
   224.2624 224.3214 224.4209 224.6432 224.7195 224.8778 224.8834 225.1006
   225.1242 225.2002 225.2517 225.9169 226.2366 226.2579 226.4279 226.4535
   226.6708 227.5272 227.5964 227.7349 227.7504 227.8254 227.8583 228.0231
   228.0291 228.0714 228.1356 228.2222 228.2479 228.3349 228.3776 228.4925
   228.5160 228.5544 228.9002 229.0195 229.2166 229.2350 229.4129 229.4153
   229.5668 229.8493 229.8790 229.9585 230.5227 230.5633 230.7248 230.7329
   230.9538 231.3276 231.4922 231.5609 231.7913 231.8306 231.8435 231.9145
   232.0979 232.1247 232.1783 232.5280 232.6624 232.6870 232.7197 232.8311
   232.8314 232.8815 232.8842 232.9118 232.9514 233.1072 233.1103 233.2449
   233.2983 233.3198 233.4126 233.4418 233.4588 233.8293 233.8403 234.2130
   234.2367 234.2519 234.3090 234.3625 234.4475 234.5751 234.5941 234.7344
   234.7426 235.4698 235.5503 235.8072 235.9052 235.9769 235.9864 236.0038
   236.4213 236.5416 236.6481 236.6635 236.6751 236.8842 236.9359 236.9576
   236.9582 237.0914 237.1151 237.2092 237.3356 237.3504 237.4689 237.9234
   237.9405 238.0692 238.1604 238.4479 238.5393 238.6037 238.6744 238.7345
   238.8514 239.0291 239.1547 239.5457 239.6371 239.6676 239.6684 239.7290
   239.8697 239.8745 239.9339 240.0929 240.1380 240.2184 240.2358 240.2908
   240.3509 240.5784 240.6676 240.7239 240.8428 241.0527 241.0943 241.1377
   241.3075 241.8484 241.9213 241.9450 242.0948 242.1513 242.1928 242.2049
   242.2285 242.2814 242.3126 243.6209 243.6928 243.7288 243.8232 243.9515
   243.9809 244.0231 244.1378 244.2952 244.3234 244.4365 244.4743 244.6304
   244.7038 244.7097 244.7426 245.2029 245.4066 245.5596 245.6071 245.8610
   246.5811 246.6016 246.8105 246.9854 247.1067 247.1239 247.5412 247.6305
   247.6979 247.8198 247.8297 247.9528 247.9593 248.0040 248.0706 248.1956
   248.4194 248.5310 248.5359 248.6557 248.6784 248.7077 248.7447 248.7454
   248.8919 249.2232 249.3819 249.7318 249.8037 250.0971 250.2693 250.2765
   250.2977 250.5806 250.8129 251.4340 251.4815 251.5553 251.5731 251.6015
   251.6771 251.7272 251.7974 252.3329 252.3458 252.6934 252.8770 252.9271
   252.9995 253.2812 253.3507 253.8720 254.0914 254.1345 254.1470 254.5993
   254.8037 254.8675 255.0838 255.0901 255.1043 255.1901 255.1975 255.3706
   255.4329 255.4421 255.4837 255.5607 255.5714 255.7236 255.8967 256.3053
   256.4821 256.5532 256.5607 257.8299 257.8978 258.2566 258.3291 258.4855
   258.7890 259.2098 259.2484 259.3388 259.4647 259.5412 260.0346 260.2161
   260.3484 260.3975 260.5044 260.5733 260.6031 261.0549 261.1048 261.1629
   261.1872 262.2770 262.6443 262.7814 262.9391 263.3008 263.3713 263.3751
   263.4177 263.5597 263.5743 263.7210 263.7239 263.7263 263.7983 263.8921
   264.0096 264.1116 264.1152 264.1687 264.2514 264.2805 264.3070 264.6014
   264.7680 266.4042 266.5662 266.6648 266.8770 267.2120 267.2364 267.3244
   267.3412 267.4806 267.5484 267.6301 267.6489 267.6835 267.7218 267.9310
   268.0621 268.3049 268.3610 268.4534 268.5068 269.0645 269.1519 269.3736
   269.4169 270.1344 270.3276 270.5795 270.7848 270.8069 271.0605 271.0660
   271.1190 271.1965 271.2407 271.2732 271.3398 271.4381 271.5245 271.5325
   271.8700 271.9745 272.0468 272.0527 272.0661 272.2313 272.7204 272.8862
   272.9408 273.6436 273.7376 275.0374 275.1394 275.3024 275.4989 275.6665
   275.7285 275.7539 275.8144 276.2140 276.2568 277.1257 277.1557 277.1725
   277.1920 277.3091 277.3483 277.4144 277.4274 278.0527 278.4525 278.5582
   278.5816 278.6436 278.7032 278.7226 278.9186 278.9222 278.9622 279.0353
   279.0909 279.5592 279.5917 279.6652 279.7818 279.8589 279.8703 279.9800
   280.0209 280.8073 280.8272 280.8457 280.8915 281.1672 281.1774 281.2577
   281.3112 282.0655 282.3268 282.4612 282.6297 282.6377 282.7073 282.7547
   282.7951 282.9227 282.9564 283.3746 283.3910 283.4082 283.4249 283.5053
   283.5077 283.6047 283.6132 283.7667 283.7706 284.0508 284.0761 284.1133
   284.1252 284.1474 284.1538 284.3626 284.3879 284.5683 284.5832 286.6617
   286.8094 286.9973 287.0422 287.1375 287.1772 287.4969 287.5349 287.5670
   287.5871 287.9515 287.9944 288.0220 288.0290 288.0478 288.1211 288.1354
   288.1682 288.2261 288.2609 288.2660 288.3655 289.0782 289.0869 289.0870
   289.1455 289.2614 289.3135 289.4064 289.4095 290.5219 290.5640 290.6598
   290.6706 290.8847 290.9034 290.9310 291.0270 291.5082 291.5259 291.5633
   291.5984 291.6939 291.7120 292.4957 292.5912 292.6311 292.7032 292.8650
   292.8733 292.9101 292.9108 293.0305 293.0918 293.2331 293.2380 293.6516
   293.7197 294.4741 294.5878 294.5879 294.7215 295.7203 295.8118 295.8991
   295.9383 296.0162 296.0489 296.0903 296.0939 296.6791 296.7321 297.2846
   297.5082 297.6948 297.7262 297.7755 297.8563 298.0500 298.0600 298.2496
   298.3137 298.4821 298.5170 298.7759 298.8151 298.9165 298.9348 299.1311
   299.2257 299.2640 299.3060 299.3247 299.3492 299.3916 299.4017 299.5119
   299.5135 299.9728 300.0055 300.0205 300.0287 300.2632 300.2846 300.3518
   300.3837 301.2006 301.2089 301.3681 301.3723 301.8254 301.9047 302.0907
   302.1176 302.1469 302.1873 302.5282 302.5302 302.6394 302.6611 302.7845
   302.8560 303.0814 303.0858 303.3519 303.3533 303.3619 303.3633 304.2635
   304.3313 304.3540 304.4522 304.6067 304.6667 304.6920 304.6977 304.8667
   304.8954 304.8981 304.9362 305.3052 305.3780 305.5054 305.5668 305.5682
   305.6294 306.2696 306.2881 306.4315 306.5632 306.9651 307.0125 307.1190
   307.1427 307.3394 307.3842 307.5189 307.5368 307.6264 307.6495 308.0139
   308.0360 308.1568 308.1708 309.5472 309.6616 309.6973 309.7245 309.8633
   309.8645 309.8752 309.8925 310.4047 310.4433 310.4589 310.4644 311.3881
   311.5010 311.5143 311.5839 311.8729 311.8834 311.8925 311.9430 312.5428
   312.8048 313.3990 313.4375 313.5339 313.6047 313.7751 313.7913 313.8182
   313.8240 314.0814 314.1393 314.1661 314.1934 315.1733 315.1967 315.3790
   315.4002 315.4110 315.6005 316.0670 316.0764 316.3657 316.4614 316.4933
   316.4997 316.5824 316.6458 316.6623 316.7188 317.6017 317.6220 317.7431
   317.7630 317.9214 317.9232 318.1553 318.2102 318.7446 318.7561 318.9315
   319.0159 319.2834 319.3792 319.4077 319.4792 319.5587 319.6005 320.7232
   320.7301 321.3831 321.4769 321.5358 321.6491 322.0221 322.0235 322.0293
   322.0530 322.1594 322.1697 322.1886 322.2209 323.0005 323.1666 323.1968
   323.2621 323.4327 323.4349 323.4923 323.5032 323.8420 323.8496 323.8590
   323.8590 324.7016 324.7124 324.7303 324.7451 325.7017 325.7074 325.7462
   325.7749 326.2157 326.2557 326.2624 326.2682 327.1038 327.1509 327.5220
   327.7998 327.8326 327.9378 327.9638 328.0371 328.3129 328.3739 328.4186
   328.4885 329.3058 329.3113 330.2303 330.2392 330.5420 330.5481 330.9743
   331.1281 331.2162 331.2532 331.4585 331.4877 331.6206 331.6327 331.6437
   331.6484 332.5090 332.5227 332.5691 332.5721 333.3637 333.4802 333.6161
   333.6368 334.0579 334.1314 334.1380 334.1538 334.9417 334.9458 335.0255
   335.0995 335.1933 335.2223 335.3495 335.4416 335.4495 335.5301 335.9085
   336.1797 336.2208 337.1018 337.2127 337.3168 337.9945 338.0621 338.1020
   338.1481 338.2219 338.7889 338.8129 338.9944 339.0653 339.0756 339.1156
   339.8352 339.9349 339.9511 339.9990 340.2025 340.2805 341.2336 341.2747
   341.5764 341.5924 341.6657 341.6934 341.8921 341.8961 342.3704 342.4073
   343.0043 343.0833 343.1587 343.2180 343.2812 343.3857 343.3871 343.4734
   343.6119 344.5278 344.5708 344.9052 344.9078 345.1267 345.2175 345.3259
   345.4194 345.5193 347.0160 347.0295 347.0908 347.1280 347.2924 347.3084
   347.5162 347.5847 348.1447 348.3017 348.9596 349.0101 349.0936 349.1360
   349.1583 349.2221 349.2796 349.3089 349.3205 349.3510 349.5872 349.6159
   349.6596 349.6624 350.8106 350.8850 350.9079 350.9508 351.5302 351.5901
   351.5986 351.6147 351.8150 351.8917 351.9811 352.0353 352.0390 352.0884
   352.1062 352.1360 353.1487 353.1565 353.1624 353.2010 354.7291 354.7387
   355.0915 355.1185 355.8821 355.9072 357.3238 357.5451 357.8735 357.9145
   357.9830 358.0953 358.1317 358.9199 358.9230 359.0576 359.0923 359.1271
   359.3092 359.3179 359.7881 359.8069 359.8479 359.8622 360.1120 360.3183
   360.3230 360.4832 361.0390 361.1070 361.2364 361.2693 361.2923 361.3161
   361.7660 361.9540 362.2196 362.2759 362.4021 362.7493 362.8327 363.0456
   363.0614 363.6830 363.7337 363.7506 363.7517 363.9006 363.9013 364.9088
   364.9497 365.0674 365.1238 365.6970 366.5994 366.8988 367.0984 367.1518
   367.4580 367.5939 367.6051 367.6635 367.6898 367.7920 368.0834 368.1253
   368.1315 368.3021 368.9061 369.0358 369.0940 369.2437 369.3699 369.4110
   369.4499 369.5232 369.7764 369.9754 369.9801 369.9860 370.1252 370.2233
   370.4036 370.4155 370.5084 370.5383 370.6058 370.6693 370.7214 370.7533
   370.9761 371.0330 371.0677 371.3041 371.3305 371.3581 371.3843 371.3926
   371.4773 371.4847 371.7229 371.9219 371.9227 372.8291 372.9459 374.6082
   374.7065 375.1123 375.1513 375.3953 375.4290 375.4824 375.5910 375.5995
   375.6806 375.8217 375.8829 375.9640 376.2316 377.1206 377.1504 377.3173
   377.3220 377.9188 378.1908 378.3621 378.5176 378.5386 378.6662 378.6698
   378.7205 378.7961 379.0958 379.2524 379.2707 379.2779 379.3246 379.5220
   379.5847 379.6980 379.7307 379.7410 379.7498 379.8342 380.1931 380.6487
   380.7577 380.7795 380.7813 381.3870 381.4818 381.5808 381.6208 381.6632
   381.6704 381.9640 382.0611 382.0753 382.1225 382.1369 382.1662 382.1924
   382.2092 382.8693 382.9909 383.0323 383.0472 383.2016 383.2146 383.3147
   383.3457 383.7807 383.8150 383.8171 383.8432 383.9434 383.9487 384.2178
   384.2239 384.5350 384.5672 384.6617 384.7985 385.2256 385.3628 386.1460
   386.1647 386.5971 386.5981 386.8845 386.9611 387.1697 387.1847 387.8265
   387.8323 388.0534 388.0676 389.5606 389.7792 389.8282 389.9610 389.9763
   389.9804 390.2235 390.2928 390.7133 390.8896 390.9010 390.9235 391.1029
   391.1157 391.4331 391.4417 391.5063 391.5260 391.5829 391.6058 391.6397
   391.6649 391.6921 391.7742 392.4533 392.4647 392.6215 392.6518 392.9782
   393.0306 393.1653 393.2047 393.2973 393.3073 393.3471 393.6290 393.6724
   393.6963 393.7500 393.8616 393.8998 394.0536 394.0625 394.2562 394.2742
   394.3359 394.3509 394.3677 394.4383 394.5681 394.6053 394.6521 394.6574
   394.8347 394.8859 394.8936 394.9245 395.2080 395.2391 395.2653 395.2803
   395.5286 395.6105 395.6196 395.6696 395.8822 395.8859 396.4046 396.4612
   396.6845 396.7249 396.8290 396.8331 397.4509 397.7559 397.7681 398.1468
   398.1796 398.5817 398.7112 398.7209 398.7327 398.7778 398.8347 398.8933
   398.9556 398.9593 399.4644 399.4735 399.4779 399.4892 399.5559 399.5599
   399.9017 399.9065 399.9958 400.1472 400.2685 400.3654 400.7815 400.8339
   400.9127 401.1543 401.1766 401.2000 401.3160 401.3197 401.3424 402.4656
   402.5135 402.5238 402.5951 402.6150 402.6503 403.4588 403.4673 403.7676
   403.7792 403.8420 403.9996 404.0474 404.0554 404.1634 404.1984 404.5726
   404.5974 404.5975 404.7471 404.7878 404.7917 404.8024 404.8227 404.9305
   404.9464 404.9656 404.9709 405.1830 405.1908 405.3253 405.3291 405.7748
   405.9354 405.9772 406.0230 406.0419 406.0774 406.2535 406.2604 406.2728
   406.5273 406.5302 406.6239 406.6680 406.6972 406.7206 406.7353 406.8058
   407.0284 407.0799 407.1588 407.1774 407.2226 407.2946 407.6086 407.6296
   407.6547 407.6712 407.7669 407.9034 407.9139 407.9217 407.9971 408.0227
   408.2019 408.2291 408.5639 408.5698 408.6909 408.7914 408.7961 408.8007
   408.8388 408.8482 408.8785 408.8976 409.1372 409.1537 409.3076 409.3098
   409.8991 410.1450 410.1520 411.0447 411.1156 411.1174 411.1435 411.1679
   411.1792 411.2502 411.3292 411.3428 411.3557 411.5138 411.5349 411.5698
   411.6007 411.8114 411.8170 411.8192 411.9365 411.9906 412.0590 412.1036
   412.1869 412.2121 412.2203 412.3380 412.3472 412.3600 412.3706 412.4002
   412.4065 412.7223 412.8076 412.8921 412.9073 413.1668 413.1717 413.2873
   413.2934 413.6485 413.6819 413.6994 413.7097 413.8993 413.9063 414.1577
   414.1898 414.5201 414.5280 414.5320 414.5415 414.6476 414.7205 414.9781
   414.9804 415.4308 415.4598 415.8245 415.8292 415.8470 415.8647 416.0571
   416.0610 416.0660 416.0725 416.5527 416.5664 416.5982 416.7328 416.7408
   416.7500 416.8317 416.8429 416.8729 416.8896 416.8923 416.9137 417.3121
   417.3392 418.3483 418.3501 419.0457 419.0836 419.0974 419.1467 419.1649
   419.1684 419.2135 419.2610 419.6102 419.6103 419.6249 419.6449 419.7872
   419.7935 419.8863 419.9059 420.0039 420.0082 420.1577 420.1693 420.2675
   420.2709 420.6028 420.6144 420.6747 420.6886 420.6979 420.7086 421.1264
   421.1281 421.1332 421.1421 421.1937 421.1996 421.3228 421.3296 421.8978
   422.0326 422.0380 422.1764 422.2900 422.2994 422.3073 422.4274 422.5224
   422.5355 422.7186 422.7208 422.7456 422.8319 423.6108 423.6276 423.7081
   423.7120 423.8640 423.8791 423.8851 423.9115 424.0423 424.0439 424.0607
   424.0607 424.8524 424.8609 424.8805 424.8822 425.1494 425.2054 426.0441
   426.0747 426.0962 426.1136 426.1220 426.2540 426.2542 426.8160 426.8937
   427.0022 427.0306 427.0319 427.1748 427.1844 427.2161 427.3129 427.3672
   427.3983 427.5605 427.5854 427.7743 427.7943 427.7978 427.8145 427.9810
   427.9952 428.0544 428.0576 428.2021 428.2278 428.2406 428.2514 428.2757
   428.2939 428.3461 428.4134 428.4220 428.4336 428.4364 428.6911 428.7300
   428.7516 428.7595 428.7635 429.1582 429.1642 429.3267 429.3307 429.4287
   429.4319 429.5699 429.6078 429.6156 429.6356 430.5081 430.5133 430.6468
   430.6479 430.8546 430.9020 431.5053 431.5542 431.8664 431.8831 431.8859
   431.9001 432.0763 432.1916 432.2770 432.3111 432.3285 432.3978 432.4278
   432.4319 432.4567 432.4635 432.7817 432.8152 432.8234 432.8443 433.0477
   433.0652 433.1328 433.1621 433.1865 433.2193 433.2894 433.3307 433.3604
   433.3745 433.5946 433.6004 433.6349 433.6557 433.8660 433.8661 434.1250
   434.1386 434.1393 434.1424 434.4823 434.5282 434.5716 434.5871 434.5978
   434.6361 434.9183 434.9681 434.9800 434.9936 435.1989 435.1997 435.2051
   435.2059 435.3527 435.3692 435.4975 435.5109 435.5608 435.5680 435.7943
   435.7946 435.7984 435.8013 436.0133 436.0206 436.0249 436.0394 436.7004
   436.7122 436.7320 436.7384 436.8140 436.8227 436.9440 436.9743 437.1640
   437.1723 437.1851 437.2061 437.7749 437.8328 438.1047 438.1133 438.7313
   438.7649 439.0057 439.0216 439.0371 439.0725 439.4335 439.4479 439.5761
   439.5780 439.5865 439.6087 439.7445 439.7771 439.7992 439.8037 440.0368
   440.0428 440.1103 440.1228 440.4180 440.4435 440.4494 440.4583 440.7914
   440.8372 440.8478 440.8694 441.6356 441.6469 441.7739 441.7757 441.7859
   441.7964 442.1408 442.1505 442.1542 442.1580 442.5960 442.6008 443.0125
   443.0228 443.0926 443.1202 443.4179 443.4451 443.6719 443.6731 443.7286
   443.7344 443.7834 443.7973 443.8746 443.8798 444.0997 444.1124 444.3483
   444.3682 444.7208 444.7253 444.7366 444.7475 445.5670 445.6054 445.6205
   445.6212 446.0274 446.0590 446.7122 446.7827 446.7933 446.8317 447.2387
   447.2561 447.2612 447.2899 447.4746 447.5267 447.6673 447.6737 447.7704
   447.7869 447.7957 447.7984 448.0494 448.0528 448.0626 448.0644 448.4302
   448.4381 448.4622 448.4779 448.4804 448.5006 448.6519 448.6541 448.7042
   448.7245 449.1500 449.1569 449.7220 449.7243 449.8143 449.8776 449.8846
   449.8867 450.0113 450.0204 450.1111 450.1251 450.1650 450.1691 450.2368
   450.2369 450.9584 450.9675 450.9767 450.9894 451.7380 451.7614 451.8661
   451.8717 452.0521 452.0896 452.1930 452.1980 452.2004 452.2186 453.1680
   453.1770 453.1859 453.2066 454.0512 454.0632 454.2724 454.2942 454.5898
   454.6799 454.8868 454.8984 455.0991 455.1499 455.1675 455.1709 455.2908
   455.2919 455.4624 455.4690 455.6204 455.6264 455.6337 455.6372 455.8900
   455.9126 455.9256 455.9323 456.4533 456.4574 456.4687 456.4727 456.5228
   456.5761 457.8530 457.8563 457.9031 457.9528 458.1961 458.2168 458.2225
   458.2324 458.5675 458.5989 459.6470 459.6559 459.8898 459.9143 459.9247
   459.9404 460.1673 460.1982 460.3805 460.3927 460.7880 460.8569 461.1052
   461.1405 461.3546 461.3602 461.8084 461.8575 461.9968 462.0274 462.4574
   462.4780 462.5324 462.5956 462.7132 462.7166 462.7312 462.7591 462.8392
   462.8502 463.0519 463.0660 463.0711 463.0838 463.3612 463.3645 463.3751
   463.3867 463.4916 463.4939 463.5762 463.5932 463.6297 463.6314 463.7366
   463.7437 463.7655 463.7690 463.9720 463.9918 463.9946 463.9974 464.2632
   464.2662 464.2723 464.2818 465.0228 465.0670 465.1817 465.1871 466.5580
   466.6015 466.9629 466.9645 466.9851 467.0224 467.2092 467.2186 467.2201
   467.2251 467.2292 467.2396 467.5596 467.5685 467.6418 467.6476 467.7376
   467.7512 468.1634 468.3594 468.5096 468.5159 469.4886 469.5518 469.7088
   469.7149 469.7639 469.7695 471.0039 471.0676 471.1016 471.1018 471.1104
   471.1522 471.1692 471.1791 471.2004 471.2562 471.2658 471.2748 471.2769
   471.3061 471.3099 471.3531 471.3548 471.4182 471.7734 471.8028 471.8201
   471.8264 472.1342 472.1397 472.1619 472.1791 473.2360 473.2660 473.2735
   473.2809 473.6128 473.6419 473.6498 473.6597 474.1682 474.1859 474.1932
   474.1966 474.1987 474.2366 475.1722 475.1911 475.3210 475.3262 475.3963
   475.4037 475.4116 475.4283 477.7053 477.7713 478.1389 478.1397 478.7543
   478.8161 478.8527 478.8760 479.1276 479.1380 479.1809 479.1822 479.8945
   479.9209 479.9232 479.9298 480.8756 481.0058 481.0814 481.1188 481.3040
   481.3435 481.5097 481.5160 481.7634 481.8548 481.8852 481.9253 481.9623
   481.9670 482.0346 482.0522 482.2155 482.2610 482.6693 482.6897 483.0606
   483.1494 483.1652 483.1994 483.2038 483.2620 483.2907 483.3292 483.3645
   483.3730 483.4341 483.4403 483.7580 483.7752 483.9878 484.0494 484.0719
   484.0813 484.0932 484.1080 484.3683 484.3842 484.7495 484.8634 485.3911
   485.4030 485.5132 485.5490 485.7592 485.7678 485.8059 485.8074 485.9568
   486.0028 486.0288 486.0493 486.1164 486.1256 486.1620 486.1684 486.6638
   486.6878 487.0211 487.0329 487.0349 487.0400 487.2172 487.2335 487.6817
   487.6827 488.8493 488.8755 489.1512 489.1632 489.1725 489.1991 489.2156
   489.2189 489.6473 489.6664 489.6929 489.7139 490.4899 490.5156 491.0196
   491.0252 491.0347 491.0563 491.3002 491.3053 491.3796 491.3892 492.3533
   492.4016 492.8151 492.8747 493.1040 493.1383 493.4429 493.4484 493.6034
   493.6449 493.8492 493.8842 493.9377 493.9440 494.0130 494.0132 494.0230
   494.0381 494.0613 494.0867 494.1033 494.1107 494.1367 494.1406 495.2809
   495.2845 495.2868 495.3032 495.9940 496.0155 496.0276 496.0285 496.2156
   496.2229 497.1171 497.1210 497.2742 497.2748 497.7658 497.7816 497.7875
   497.8047 497.8548 497.8598 497.8800 497.9323 497.9485 497.9656 497.9660
   497.9740 498.5024 498.5066 498.6248 498.6271 498.9256 498.9411 498.9470
   498.9706 499.0702 499.1134 499.3834 499.3869 500.5022 500.7529 500.7741
   500.8017 500.8155 500.8277 500.9379 500.9732 501.2627 501.3246 501.5161
   501.5296 501.5331 501.5822 501.7372 501.7451 502.2318 502.2410 502.2876
   502.3028 502.9295 502.9901 503.0065 503.0145 503.1794 503.3041 503.3185
   503.3229 503.3577 503.5035 503.9050 503.9162 503.9242 503.9343 504.0570
   504.0664 505.5419 505.5475 505.6824 505.7291 505.7819 505.8411 505.9541
   505.9629 505.9684 505.9701 506.0589 506.0807 506.1813 506.1890 506.5907
   506.6036 506.6262 506.6315 507.2680 507.2863 507.3005 507.3281 507.4414
   507.4465 507.8712 507.8788 507.8792 507.8812 508.2218 508.2320 508.2359
   508.2377 509.0095 509.0201 509.0267 509.0293 509.4410 509.4973 509.5546
   509.5636 509.9153 509.9424 509.9718 509.9873 510.0188 510.0345 510.2802
   510.2817 510.2879 510.2946 510.6145 510.6240 511.1088 511.1155 511.2480
   511.2506 511.2535 511.2761 511.7269 511.7307 511.7393 511.7470 512.1921
   512.2058 512.3001 512.3015 512.5964 512.6118 512.6284 512.6326 513.1094
   513.1115 513.2620 513.2666 513.4818 513.5190 513.5836 513.5918 513.7695
   513.7753 513.7789 513.8004 514.1481 514.1894 514.3071 514.3474 514.4927
   514.5014 514.6154 514.6186 515.3700 515.4061 515.5902 515.5956 515.7275
   515.7362 516.7866 516.7949 516.8045 516.8091 517.2951 517.3381 517.6979
   517.7025 518.0169 518.0304 518.0357 518.0476 518.0680 518.0734 518.0819
   518.0855 518.9392 518.9747 519.1414 519.1420 519.2008 519.2183 519.2998
   519.3022 519.3326 519.3681 519.3978 519.4018 519.4373 519.4387 519.9243
   519.9294 519.9401 519.9501 520.0898 520.1012 520.2691 520.2694 520.2759
   520.2791 521.5060 521.5140 521.6867 521.7058 522.5873 522.6097 522.7875
   522.8123 522.8393 522.8732 523.0856 523.0895 523.0966 523.1019 523.5720
   523.5884 523.5969 523.5990 523.7994 523.8093 523.8215 523.8338 523.9013
   523.9033 523.9099 523.9189 524.2048 524.2423 524.4493 524.4619 524.4693
   524.4718 525.0140 525.0269 525.0304 525.0367 525.2823 525.2885 525.5556
   525.5932 525.8524 525.8837 526.0269 526.0405 526.0822 526.0865 526.2297
   526.2310 526.2372 526.2507 527.1771 527.1857 527.1936 527.2068 527.2440
   527.2567 527.9906 527.9953 528.2210 528.2266 528.5778 528.5956 528.6102
   528.6122 529.0634 529.0662 529.0680 529.0867 529.1088 529.1158 529.2693
   529.2701 530.4682 530.4710 530.5878 530.5902 530.8735 530.8862 530.9190
   530.9622 530.9761 530.9832 531.1746 531.1848 531.1911 531.2004 531.4083
   531.4211 531.4221 531.4300 531.9372 531.9467 532.0179 532.0280 532.7755
   532.7828 532.7914 532.7973 532.8718 532.8782 532.8861 532.9014 532.9978
   532.9989 533.1300 533.1300 533.3224 533.3253 534.0527 534.0635 534.0758
   534.1035 534.1104 534.1149 534.1195 534.1205 534.1284 534.1342 534.1369
   534.1382 535.0638 535.0787 535.9157 535.9186 535.9338 535.9393 536.9576
   536.9718 536.9790 536.9871 537.9798 537.9872 538.1067 538.1530 538.2353
   538.2414 538.5423 538.5646 538.5745 538.6025 538.6207 538.6498 539.0238
   539.0344 539.0360 539.0448 539.2778 539.2980 539.2988 539.3029 539.4056
   539.4108 539.4165 539.4166 539.8013 539.8027 539.8071 539.8116 539.8163
   539.8284 539.9060 539.9096 539.9140 539.9161 540.4437 540.4458 540.4582
   540.4618 540.9446 540.9876 541.0156 541.0203 541.7255 541.7417 542.1040
   542.1042 542.9116 542.9179 543.1479 543.1517 544.5454 544.5634 544.5757
   544.5824 544.6572 544.7171 544.9854 545.0055 545.0144 545.0172 545.0350
   545.0536 545.0637 545.0769 546.0236 546.0366 546.5320 546.5394 546.6276
   546.6387 546.8533 546.8539 547.1378 547.1576 547.1743 547.1825 547.2092
   547.2271 547.4350 547.4379 547.4439 547.4608 547.4628 547.4686 547.5018
   547.5129 547.5352 547.5702 547.5773 547.6008 547.8559 547.8628 548.0823
   548.0929 548.3523 548.3588 548.5447 548.5521 548.8732 548.8793 548.8975
   548.9189 549.3946 549.4022 550.0702 550.0785 550.0815 550.0892 550.6259
   550.6633 550.6909 550.6934 550.9046 550.9062 551.0903 551.0976 551.4578
   551.4637 551.5171 551.5201 551.5813 551.5827 551.6012 551.6162 551.7597
   551.7620 551.7708 551.7776 552.9110 552.9219 552.9275 552.9350 553.2327
   554.7638 554.7925 554.7926 554.8370 555.0350 555.0445 555.0572 555.0584
   555.2981 555.3059 555.3306 555.3337 555.4138 555.4145 555.4171 555.4172
   556.3804 556.3868 556.3899 556.3948 556.7638 556.7979 556.8370 556.8442
   557.1337 557.1657 557.1812 557.2441 558.7402 558.7419 558.7448 558.7704
   559.3219 559.3225 559.3268 559.3305 559.7436 559.7845 559.7954 559.8011
   560.8640 560.8913 561.0008 561.0188 561.0275 561.0320 562.5279 562.6545
   562.7098 562.8159 562.8545 562.9492 562.9539 563.0463 563.1059 563.1113
   563.1122 563.1865 563.4330 563.4394 563.4441 563.4547 563.8372 563.8428
   563.9488 563.9622 564.2425 564.2496 564.9569 564.9667 565.3079 565.3100
   566.1338 566.1409 566.2545 566.5268 566.5636 566.7318 566.7508 566.7594
   566.7646 566.8270 566.8657 566.9699 566.9812 567.2682 567.2857 567.3076
   567.3214 567.3271 567.3767 567.4441 567.4579 567.6888 567.6956 567.7077
   567.7084 567.7325 567.7788 567.7791 567.7839 568.2702 568.2706 569.5245
   569.5389 570.3662 570.3676 570.4295 570.4499 570.6839 570.7000 570.9207
   570.9264 571.0069 571.0308 571.1839 571.1950 571.2056 571.2123 571.2657
   571.2844 571.2859 571.2933 571.4013 571.4079 571.7811 571.7856 571.8582
   571.8602 571.9093 571.9176 571.9185 571.9437 573.1014 573.1264 573.1361
   573.1403 573.8623 573.8632 573.8685 573.8906 574.6996 574.7063 575.0724
   575.0808 575.0830 575.0899 575.3840 575.3992 575.4990 575.5053 575.6332
   575.6349 575.6634 575.6835 575.6893 575.6906 576.5283 576.6605 577.0914
   577.1043 577.2722 577.2738 577.8693 577.9731 577.9762 577.9832 577.9884
   578.0136 578.0526 578.0845 578.7647 578.7745 579.0117 579.0714 579.2241
   579.2277 579.4312 579.4422 579.6297 579.6401 579.6430 579.6544 579.6854
   579.7079 579.9661 580.0028 580.2334 580.2583 580.4956 581.7423 581.7448
   582.2040 582.5599 582.7797 582.7844 583.1149 583.1206 583.1302 583.1443
   583.2458 583.2858 583.3466 583.3969 583.4129 583.4427 583.4530 583.4618
   583.6004 583.7010 583.9889 584.8874 584.8933 584.8949 584.9258 586.1275
   586.1303 586.1326 586.1395 587.4618 587.4828 587.7777 587.9408 587.9504
   587.9651 587.9780 588.4594 588.6971 588.7748 588.7911 588.8202 589.0448
   589.0557 589.0921 589.1067 589.1222 589.1289 589.1754 589.2426 589.2638
   589.2958 589.5809 589.5864 589.6583 589.6650 589.7525 589.7583 589.8597
   589.8848 589.8975 589.9037 589.9150 589.9243 590.3507 590.4425 590.5650
   590.7005 590.9493 590.9600 590.9752 590.9756 591.2058 591.2228 591.2259
   591.2315 591.6713 591.6826 591.7590 591.7610 592.5551 592.5743 592.5821
   592.6114 592.9140 592.9422 592.9662 592.9823 593.1661 593.1691 593.2693
   593.8612 593.8882 593.9736 593.9820 594.0220 594.0306 594.1124 594.1300
   594.4902 594.4974 594.8833 594.8891 594.8913 594.9574 595.0617 595.1454
   595.2006 595.2205 595.5817 595.6348 595.9282 595.9347 595.9717 595.9745
   596.0338 596.0477 596.1094 596.1254 596.1348 596.1435 596.3412 596.3488
   596.5266 596.6402 597.0694 597.0746 597.2531 597.2588 597.4332 597.4389
   597.5108 597.5367 597.6633 597.6680 598.4019 598.4118 598.5747 598.5769
   598.9706 598.9850 599.0497 599.0594 599.0656 599.0865 599.2570 599.2633
   599.3092 599.3711 599.5566 599.5763 599.6976 599.7168 599.8860 599.9098
   599.9519 599.9572 600.0109 600.0265 600.0749 600.0750 600.1435 600.1600
   600.1651 600.1801 600.7427 600.7474 600.7538 600.7591 600.7699 600.7783
   600.7927 600.7992 601.0928 601.0981 601.2512 601.2569 601.7556 601.7594
   601.7722 601.7770 602.1048 602.1103 602.1171 602.1192 602.4323 602.4408
   602.5486 602.5517 602.8501 602.8501 602.9544 602.9657 603.5942 603.6007
   603.8022 603.8090 603.8467 603.8504 603.8701 603.8816 603.9522 603.9533
   604.2847 604.2873 604.4115 604.4141 604.7709 604.7782 604.7930 604.7992
   604.8004 604.8579 605.4143 605.4233 605.4478 605.4814 605.7098 605.7120
   605.7242 605.7251 606.2610 607.1432 607.1531 607.1763 607.1902 607.4894
   607.4926 607.4935 607.5357 607.7002 607.7018 607.7149 607.7185 608.0652
   608.0730 608.0895 608.0919 608.4386 608.4420 608.4434 608.4472 609.4104
   609.4160 609.4268 609.4389 609.4966 609.4995 609.7434 609.7435 610.0170
   610.0615 610.0761 610.1118 610.3111 610.3742 610.6303 610.6597 610.6692
   610.6757 610.9821 610.9883 610.9908 611.0151 611.0532 611.0577 611.1757
   611.1768 611.7427 611.7455 611.7465 611.7600 611.8919 611.8934 611.9159
   611.9187 612.5705 612.5802 612.6253 612.6297 612.7099 612.7326 612.8356
   612.8402 613.3889 613.3943 613.6365 613.6466 613.7157 613.7210 613.8243
   613.8355 613.8867 613.8890 614.7857 614.7887 614.8956 614.8976 615.1424
   615.1478 615.1744 615.1873 615.8717 615.9049 615.9594 615.9663 616.0437
   616.0615 616.1766 616.1807 616.4777 616.4950 616.5021 616.5051 616.5918
   616.6891 617.0231 617.0448 617.0617 617.0654 617.2428 617.2485 617.4334
   617.4670 617.6089 617.6272 617.6663 617.6692 618.0369 618.0634 618.0740
   618.0806 618.0950 618.0964 618.1222 618.1225 618.1272 618.1354 618.2522
   618.2581 618.4160 618.4225 618.5834 618.5860 619.3180 619.3218 619.6359
   619.6452 619.7928 619.7956 620.1019 620.1143 620.2779 620.7357 620.7408
   620.7844 620.7874 621.0813 621.0846 621.2349 621.2410 621.6256 621.6564
   621.6614 621.7330 621.8292 621.8362 621.8473 621.8588 621.9212 622.0005
   622.0466 622.0498 622.1945 622.2042 622.4328 622.4419 622.5493 622.5522
   622.9138 622.9169 622.9195 622.9432 623.0555 623.3944 623.5883 623.5886
   623.5935 623.6092 623.7378 623.8665 623.8681 623.8826 623.8864 623.9817
   624.0224 624.3457 624.3467 624.4255 624.4264 624.4274 624.4328 624.4476
   624.6002 624.7660 624.7868 624.7891 624.8009 624.8191 624.8223 625.4445
   625.4490 625.4581 625.4735 625.5146 625.5188 625.9851 625.9917 626.0100
   626.0144 627.1998 627.2030 627.2777 627.2781 627.2875 627.2883 627.5982
   627.5998 627.6217 627.6287 627.6615 627.7993 627.8043 627.8583 627.9893
   628.0434 628.0505 628.0569 628.0678 628.0783 628.0840 628.3002 628.3138
   628.3443 628.3485 628.4569 628.9389 628.9628 629.0126 629.0171 629.0324
   629.1151 629.1688 629.2734 629.2887 629.3023 629.7271 629.7315 630.3255
   630.4118 630.5381 630.5863 630.5943 630.6727 630.7104 630.8129 630.8326
   630.8462 630.8912 631.0852 631.1112 631.1151 631.1231 631.1238 631.4060
   631.4094 631.4604 631.4678 631.5392 631.5400 631.5617 631.6339 631.7300
   631.7312 631.7354 631.7500 631.8950 631.9052 631.9932 631.9972 632.0488
   632.0539 632.2090 632.3361 632.5687 632.5777 632.5916 632.5984 632.6314
   632.6353 632.8975 632.9508 633.1376 633.1566 633.4563 633.4584 633.4757
   633.4854 633.9290 633.9314 633.9823 633.9833 633.9965 634.0004 634.0117
   634.0266 634.0312 634.0326 634.0597 634.0612 634.0867 634.0906 635.0232
   635.0318 635.0345 635.0372 635.3010 635.3238 635.3855 635.3893 635.6459
   635.6964 636.0344 636.0418 636.0445 636.0461 636.0852 636.0983 636.4955
   636.5103 636.5187 636.5248 637.8061 637.8168 637.8190 637.8300 637.9562
   637.9911 638.0899 638.0932 638.7413 638.7437 638.7516 638.7550 638.9199
   638.9347 639.0856 639.1612 639.1889 639.1903 639.4253 639.4797 639.4827
   639.4998 639.5179 639.5179 639.5490 639.5694 639.6069 639.6699 640.0397
   640.0670 640.1121 640.2296 641.3245 641.3561 641.4633 641.4739 641.5471
   641.5481 642.0507

          k = 0.0417 0.1684 0.0000 (  7288 PWs)   bands (ev):

   -21.3825  -9.0891  -7.3310  -6.5321   1.0871   1.8498   1.9116   2.9191
     3.2654   4.8094   5.4946   6.8364   6.9256   8.3116   8.6638   8.9040
    10.8267  12.0411  13.4527  16.3077  17.8356  20.0333  21.6433  22.0765
    22.9528  23.1940  24.1753  24.6609  24.7907  25.9886  25.9987  26.6233
    26.6547  27.2586  27.3769  28.2445  28.3331  28.4998  28.6429  29.2634
    29.4405  30.3352  31.0084  31.0245  31.1641  31.2341  31.4607  31.6014
    32.1824  32.6198  33.0916  33.7010  34.0122  34.5913  34.8239  35.0188
    35.1135  35.5858  35.7894  36.3454  36.5419  36.6243  37.2541  37.4969
    37.8009  37.8916  38.0631  38.2025  38.2290  38.9245  39.5862  39.6563
    40.2804  40.3743  40.6109  40.7039  40.9582  41.3675  41.3738  41.9099
    41.9128  42.3986  42.7453  42.8031  42.9893  43.2092  43.3388  43.4835
    43.7629  44.1591  44.1613  44.4097  44.7820  44.9913  45.1558  45.2330
    46.1259  46.3118  46.8258  46.8416  47.1181  47.2401  47.4130  47.8546
    48.0016  48.1683  48.8619  49.6818  50.2388  50.2628  51.2886  51.5139
    51.5677  51.8668  52.0379  52.2245  52.7643  52.7911  53.0441  53.8610
    54.2463  54.3505  54.8079  55.7031  56.2215  57.0154  57.5258  57.7421
    58.3849  58.5577  58.8140  58.9085  59.2644  60.3348  61.0993  61.3272
    61.6116  62.0231  62.0648  63.3059  63.3406  63.8638  64.2770  64.6064
    64.9817  65.5883  66.0289  66.7836  67.5595  67.9069  68.1541  69.3267
    69.8015  69.8757  70.2313  70.7534  71.5951  71.8511  72.0094  72.7270
    73.4248  73.4840  74.6960  74.6997  75.3175  75.3344  76.4003  76.7950
    77.4296  77.8764  77.9635  78.1892  78.6739  79.1378  80.3539  81.0169
    81.4091  81.5616  81.6445  81.9273  82.0277  82.7125  82.9477  83.1675
    83.3258  83.5004  83.9714  84.1116  84.8710  84.9171  85.3274  85.3513
    85.7566  85.9109  85.9924  86.0469  86.2213  86.6954  86.7385  87.2473
    87.3210  87.7428  88.0292  88.0615  88.6094  89.0484  89.2098  89.7568
    89.9898  90.7017  91.2711  91.6344  92.1686  92.7035  92.7725  92.8524
    92.8777  93.2191  93.6224  93.8489  93.9023  94.0103  94.4627  94.7547
    94.7912  94.8846  95.2598  95.2763  95.9318  96.0228  96.4444  96.7201
    96.8875  97.3375  97.5270  97.5284  97.7297  97.7346  97.9481  99.4941
   100.1743 100.1776 100.5734 100.6097 101.0516 101.3118 101.4228 101.7055
   101.7934 101.8889 102.0206 102.4794 102.8579 103.1874 103.2238 103.2884
   103.4649 103.8013 104.3056 104.5524 104.8548 105.0166 105.4090 105.4657
   106.1765 106.1851 106.4576 106.5753 106.9450 106.9710 107.0173 107.2490
   107.9338 108.1047 108.5342 108.6340 108.7396 108.9225 109.3273 109.3832
   109.5362 109.7163 109.8896 109.9715 110.0186 110.4016 110.8683 111.0640
   111.2301 111.2607 111.3254 111.6027 111.7359 112.3612 112.5074 112.5907
   112.6549 112.7035 112.9354 113.0621 113.2304 113.3621 113.5131 113.5634
   113.7291 113.8715 114.0120 114.4972 114.7628 114.7879 115.0885 115.2008
   115.2433 115.5707 115.8266 116.1029 116.2304 116.5232 116.5337 116.6718
   116.6739 116.9037 117.2254 117.3513 117.4422 117.5629 117.5851 117.6338
   117.8818 117.9876 118.0456 118.1852 118.3222 118.5558 119.4224 119.7356
   119.9946 120.0279 120.1565 120.2158 120.3279 120.4002 120.4635 120.6833
   120.7359 121.1302 121.1739 121.2670 121.3306 121.5466 121.9145 122.1244
   122.5428 122.7566 123.1546 123.2546 123.5246 123.8014 123.9350 123.9571
   124.0018 124.0596 124.3635 124.5371 124.5810 124.6828 124.8951 125.1724
   125.4734 125.8704 125.9333 126.4268 126.6701 126.8456 127.1517 127.3992
   127.5349 127.7557 128.1304 128.2267 128.2809 128.3165 128.7318 129.1038
   129.1155 129.1337 129.3401 129.4148 129.5668 129.5926 130.7709 130.7888
   131.0594 131.2237 131.2990 131.8379 131.8493 131.9715 132.0992 132.2062
   132.3920 132.7790 132.9252 133.0782 133.3294 133.8187 134.1242 134.4266
   134.7160 134.9971 135.0445 135.1602 135.2601 135.3939 135.5663 135.6793
   135.8706 135.8938 136.1637 136.2648 136.4083 136.5400 136.6491 136.6605
   136.7581 136.9030 137.1236 137.1832 137.4504 137.5034 138.3244 138.3812
   138.8298 138.8540 139.8361 139.8599 140.1607 140.7528 140.9262 141.2974
   141.4252 141.7280 141.8355 141.9316 142.1196 142.1610 142.3234 142.6190
   143.1253 143.2710 143.3807 143.4544 143.6577 143.7174 143.8721 144.1033
   144.4308 144.4924 144.5516 144.5705 144.9710 145.0283 145.1732 145.2455
   145.3925 145.4638 145.4945 145.5484 145.9882 146.0007 146.1081 146.1314
   146.7562 146.7909 147.2514 147.2987 147.6114 148.2495 148.2562 148.4667
   148.4776 148.6739 148.7250 149.1824 149.2691 149.6897 149.9137 149.9191
   150.0569 150.3695 150.3700 150.5402 150.6112 151.3284 151.4403 151.6310
   151.6725 151.7897 152.0061 152.2082 152.3196 152.5429 152.5910 152.9504
   153.1722 153.6089 153.6182 153.8652 153.8812 154.2062 154.4702 154.9937
   155.2159 155.4391 155.6562 155.8638 155.8928 156.0704 156.1839 156.3520
   156.5451 156.9705 157.8307 158.1082 158.3214 158.6653 158.7082 158.7145
   158.8151 158.8637 159.1056 159.1583 159.2235 159.8429 160.1247 160.5333
   160.9690 161.0133 161.4816 161.5487 161.7789 162.1646 162.2949 162.3702
   162.5777 162.8426 162.9714 162.9994 163.5553 163.6727 163.8817 163.9002
   163.9926 164.0429 164.1060 164.4242 164.7261 164.7916 164.8377 166.1005
   166.6495 166.8714 167.0323 167.1411 167.9266 167.9408 168.4880 169.0618
   169.1302 169.3886 169.5295 169.9663 170.0683 170.2326 170.3240 170.3460
   170.7738 171.1454 171.4098 171.6005 171.7049 172.3348 172.5164 172.8641
   173.3392 173.4772 173.7168 174.3131 174.4047 174.6485 174.7946 174.9304
   174.9493 175.0736 175.3324 175.7890 175.8463 176.3749 176.4888 176.9008
   176.9884 176.9916 177.2914 177.4543 177.5603 177.8699 178.4285 178.4364
   179.2461 179.6231 179.9303 180.0696 180.5829 180.9726 181.3385 182.1742
   182.4420 182.5560 182.7349 182.9160 183.0009 183.5836 183.8681 184.2395
   184.2584 184.7354 184.9932 185.2943 185.3003 185.5364 185.7234 186.0278
   186.2497 186.4107 186.7002 186.8453 186.9060 187.0206 187.0658 187.1311
   188.7413 189.1110 189.5548 189.6486 190.0588 190.1760 190.2507 190.5656
   191.0406 191.1157 191.1511 191.5839 192.1755 192.5549 192.9230 192.9576
   193.5156 193.5475 193.9972 194.5019 194.7547 194.8473 194.9247 195.0090
   195.0363 195.3830 195.7002 195.9147 196.5296 196.5505 197.1231 197.1461
   197.4140 198.1638 198.3126 198.6401 198.8126 199.1054 199.1559 199.4599
   199.7298 199.7934 200.4547 200.6540 201.2209 201.3555 201.8522 201.9487
   202.0671 202.1221 202.3181 202.3713 202.4078 202.7558 202.9751 203.1502
   203.1752 203.2424 203.2951 203.4274 203.9486 204.0365 204.1161 204.2402
   204.3460 204.4059 204.4395 204.4955 204.6265 204.6679 204.7622 204.9245
   205.1752 205.1901 205.3945 205.4147 205.4831 205.5625 205.8688 206.0618
   206.2059 206.2671 206.6097 206.6188 206.8397 206.8611 207.1621 207.2934
   207.3810 207.7181 208.1201 208.2129 208.4741 208.9024 208.9298 209.0093
   209.0708 209.3240 209.9032 209.9517 210.2520 210.9792 211.0138 211.1264
   211.2584 211.3660 211.3970 211.4338 211.7119 212.4652 212.5667 212.6493
   212.8575 213.1525 213.4262 213.5755 213.6041 213.9139 213.9633 214.0249
   214.2223 214.4481 214.5593 214.6149 214.7015 214.7317 214.8525 215.1218
   215.1546 215.1774 215.2488 215.7332 215.8264 215.9770 216.1264 216.1303
   216.3571 216.3734 216.5115 216.5807 216.7242 217.5309 217.6763 217.6920
   217.7594 217.9031 218.0744 218.0907 218.4189 218.4918 218.6146 218.7174
   218.7372 218.8386 219.0062 219.0539 219.2998 219.4197 219.5388 219.6376
   219.8668 219.9325 220.2437 220.2728 220.9312 221.1610 221.1817 221.2184
   221.4753 221.5464 221.7961 221.9341 221.9546 221.9555 222.0920 222.1688
   223.5091 223.9263 223.9617 224.0728 224.2283 224.4575 224.5977 225.1122
   225.1513 225.2905 225.3959 225.7087 225.7147 225.7774 225.9475 226.0376
   226.0914 226.1333 226.5553 226.6460 227.1031 227.1177 227.2283 227.2540
   227.3334 227.4745 227.6544 227.6956 227.9611 227.9910 228.1414 228.2360
   228.2870 228.3214 228.4638 228.9171 229.1789 229.2623 229.2899 229.3501
   229.5228 229.8071 230.0423 230.2171 230.4977 230.6559 230.7465 230.7676
   230.8553 230.9876 231.1978 231.2783 231.3649 231.5094 231.5633 231.7272
   231.8905 231.9657 232.2873 232.4534 232.8185 232.8211 232.9190 233.0333
   233.5919 233.5927 233.9029 234.0194 234.1117 234.2401 234.7178 234.8353
   234.9662 235.0130 235.2102 235.2307 235.5058 235.7774 235.9512 236.0623
   236.0810 236.4653 236.6205 236.7170 236.8817 237.2544 237.4250 237.5624
   237.6353 237.6684 237.8323 237.9955 238.0263 238.2341 238.2390 238.9109
   238.9318 238.9952 239.1715 239.2946 239.3276 239.4605 239.7861 239.9513
   239.9670 240.1153 240.1501 240.2226 240.4677 240.5990 240.6796 240.6993
   240.8569 240.8879 241.1946 241.7790 241.8309 241.9337 241.9718 242.1593
   242.1813 242.2769 242.3788 242.4123 242.5476 242.6484 242.6826 242.7413
   242.8867 243.2795 243.3458 243.5836 243.6635 243.8777 243.9276 244.0618
   244.1728 244.8266 245.1840 245.2496 245.3216 245.3395 245.4230 245.4855
   245.5973 245.7013 246.1081 246.4860 246.5374 246.8555 247.0036 247.0852
   247.1330 247.2716 247.3615 247.4365 247.4601 247.6118 247.8005 247.8049
   247.9779 248.1144 248.2273 248.2594 248.4403 248.4657 248.5278 248.6127
   248.6130 248.6541 248.8471 248.8564 249.3824 249.4831 249.7077 249.9390
   250.1691 250.6049 250.6299 250.8668 250.9613 251.0599 251.1169 251.1614
   251.2641 251.2700 251.3240 251.6428 251.7700 251.8048 251.8142 251.8843
   252.1473 252.1908 252.4592 252.5034 252.6657 252.7940 252.9732 253.0464
   253.0696 253.3063 253.3799 253.5309 253.6566 253.8169 253.9519 253.9683
   254.3721 254.4966 254.5549 254.7287 254.7439 254.9657 254.9806 255.2497
   255.2586 255.3185 255.3193 255.5179 255.6233 255.6922 255.7205 255.8344
   255.9158 256.3456 256.4620 256.5859 256.5976 257.0938 257.1617 257.3354
   257.3674 257.4252 257.4357 257.7337 257.7462 257.9930 258.0281 258.1249
   258.1265 258.7302 258.7969 259.1115 259.1624 259.5893 259.6810 259.8749
   260.0375 260.4224 260.5638 260.8341 260.9110 260.9998 261.2582 261.3163
   261.4251 261.4784 261.6950 261.7299 261.7830 261.8352 261.8384 261.9459
   262.0160 262.0177 262.4234 262.5427 262.6730 262.7604 262.8827 263.0980
   263.2002 263.3122 263.3383 263.4442 263.6415 263.7088 263.8068 263.9798
   264.0004 264.0627 264.0786 264.5923 264.6011 265.3257 265.4559 265.5009
   265.5186 265.9441 265.9634 266.1622 266.5278 266.5680 266.7284 266.8352
   266.9489 267.2604 267.2628 267.4777 267.6732 267.9599 268.2719 268.5120
   268.5398 268.7362 268.8839 268.9524 269.1526 269.3046 269.3614 269.7718
   269.9131 270.0089 270.3811 270.4565 270.5576 270.7119 270.7620 270.8336
   270.8975 271.1002 271.1532 271.2407 271.2564 271.3864 271.4731 271.7248
   271.8202 271.9006 271.9383 272.0453 272.1054 272.3790 272.4061 272.7427
   272.8199 273.1614 273.2000 273.5514 273.5946 273.7619 273.9345 274.1345
   274.1763 274.2620 274.3652 274.5853 274.5875 274.6610 274.6852 274.7865
   274.8473 274.9973 275.0579 275.1553 275.3609 275.4825 275.5553 275.6122
   276.0295 276.0685 276.3217 276.4025 276.6024 276.6255 277.1504 277.1780
   277.2640 277.2932 277.5590 277.6856 278.0574 278.3425 278.3640 278.5429
   278.5806 278.6231 279.4401 279.5338 280.0540 280.1411 280.2412 280.4230
   280.4552 280.5092 280.6590 280.7888 281.1361 281.1584 281.1898 281.3011
   281.3327 281.3558 281.3740 281.3856 281.6286 281.6457 281.7812 281.9464
   282.5805 282.6196 282.7077 282.7430 282.7781 282.9579 283.1239 283.2598
   283.9272 283.9730 284.3204 284.3620 285.0413 285.1108 285.1116 285.2146
   285.3408 285.3780 285.4851 285.4983 285.5617 285.5746 285.8500 286.0937
   286.1418 286.1676 286.9051 286.9192 287.3557 287.4459 287.5929 287.5952
   287.9550 288.5354 288.5804 288.6186 288.7263 288.7881 288.8513 289.0743
   289.1767 289.1950 289.2727 289.3420 289.5348 290.0183 290.1563 290.5593
   290.5718 290.6589 290.6879 290.7409 291.2406 291.5104 291.6674 291.6720
   291.9239 291.9449 292.0615 292.1045 292.5618 292.5786 292.6359 292.7526
   293.1475 293.2597 293.3556 293.4210 293.7379 293.8030 294.1480 294.1521
   294.4675 294.4957 294.7207 294.7429 295.0421 295.1049 295.6596 295.7015
   295.8797 295.9193 296.0595 296.1068 296.2437 296.2523 296.4587 296.5118
   296.7588 296.8216 296.9464 297.0096 297.0245 297.1364 297.1642 297.1794
   297.1932 297.2664 297.2745 297.6178 297.6236 297.7645 297.8082 297.8890
   297.9342 298.2689 298.3099 299.0344 299.0907 299.1230 299.2319 300.4278
   300.4643 300.7434 300.8695 301.4506 301.5004 301.7038 301.8366 302.3626
   302.3718 302.6771 302.7267 303.0713 303.5244 303.6075 303.8138 303.8351
   303.9388 303.9506 304.1301 304.2690 304.5440 304.5727 304.7841 304.7933
   305.0238 305.1246 305.2799 305.2826 305.8855 305.9283 306.0919 306.1147
   306.4412 306.4557 306.5375 306.5441 307.0129 307.0678 307.5731 307.6008
   307.9448 307.9698 308.1081 308.1162 308.1716 308.2090 308.4771 308.5139
   308.6576 308.6999 308.9354 309.0179 309.0767 309.3624 309.3724 309.7621
   309.8880 309.9359 310.0538 310.2612 310.3087 310.6109 310.6718 310.8436
   310.9586 311.0124 311.1160 311.2562 311.2970 311.7266 311.8478 311.9849
   312.1117 312.2622 312.3717 312.4900 312.7961 312.8172 313.0216 313.0921
   313.3444 313.3627 313.4136 313.4454 313.7468 313.7889 314.1829 314.2117
   314.7888 314.8524 315.5009 315.5921 316.2160 316.2690 316.4255 316.4827
   316.6092 316.6670 316.6993 316.8761 316.8941 317.1577 317.2430 317.2621
   317.2748 317.6385 317.6932 317.7611 317.9279 318.0825 318.3280 318.5176
   318.5203 318.6737 318.7473 319.0784 319.0962 319.1283 319.2409 319.4054
   319.7023 319.8690 319.8818 320.0838 320.4640 320.4670 320.6248 320.8377
   320.8850 321.0741 321.1772 321.2048 321.2315 321.3231 321.3259 321.4965
   321.5548 321.5903 321.6611 321.7092 321.7449 322.1385 322.1428 322.2327
   322.4980 322.6618 323.6762 323.6994 323.7667 323.9081 324.3712 324.4328
   324.5442 324.5610 324.9458 325.0473 325.1647 325.1902 325.6465 325.7730
   326.5267 326.5959 326.9110 326.9211 327.8025 327.9939 328.1725 328.5134
   328.5309 328.6019 328.6268 328.6665 328.8140 329.0293 329.2494 329.2754
   329.4596 329.4958 329.5464 329.7465 329.8403 330.1079 330.1529 330.5473
   330.6555 330.7351 330.7880 331.2043 331.4015 331.7227 331.7248 331.8947
   331.9638 332.0063 332.0243 332.0841 332.1062 332.4535 332.5014 332.6226
   332.6595 332.6751 332.7942 333.0632 333.0748 333.1807 333.1924 333.2838
   333.3277 333.4929 333.5346 334.8940 335.0340 335.1075 335.1316 335.8448
   335.8577 336.2608 336.3392 336.4980 336.4986 336.8663 336.9409 337.0620
   337.0666 337.9044 337.9322 338.5627 338.6073 338.9441 339.0071 339.3643
   339.5005 339.6037 339.7899 339.8859 339.9187 340.4325 340.5102 340.7624
   340.7892 341.3556 341.3843 341.5631 341.6747 341.8189 341.8300 342.2121
   342.2868 342.6918 342.6930 342.8729 342.9218 343.0947 343.0973 343.1880
   343.1964 343.5384 343.6106 343.6196 343.7064 344.0404 344.1438 344.6014
   344.7977 344.8213 345.0356 345.0834 345.2019 345.2249 345.3515 345.3621
   346.1540 346.4650 346.6633 346.8945 347.0572 347.4389 347.4477 347.5980
   347.6460 348.3656 348.3876 348.5807 348.6222 349.0653 349.5264 349.7844
   350.5448 350.7663 350.8624 350.9685 351.0661 351.1937 351.5765 351.6143
   351.6494 351.6678 351.7626 351.8371 351.8516 351.8606 352.2374 352.3010
   352.3263 352.3513 352.8392 353.2716 353.2872 353.7318 353.8664 354.0609
   354.3094 354.3600 354.4805 354.7023 354.8006 354.9190 354.9887 355.0239
   355.0464 355.2124 355.6665 355.6919 355.7552 355.7756 356.0807 356.1273
   356.1476 356.1633 356.7923 357.3862 357.4337 357.6019 357.6671 357.6674
   357.9167 357.9514 358.0772 358.4573 358.4575 358.6361 358.6701 358.8809
   359.0422 359.5434 359.5527 359.8650 359.9481 359.9945 360.1748 360.4020
   360.4531 360.6873 360.7368 360.8395 360.9845 360.9933 361.1360 361.1369
   361.3022 361.4831 361.5233 361.7015 361.8801 362.1152 362.1913 362.3223
   362.4845 362.6364 362.7013 362.9985 363.1829 363.2131 363.4950 363.5522
   363.6810 363.7397 364.3724 364.6367 364.9593 364.9831 365.0077 365.0560
   365.0579 365.1071 365.3476 365.3511 365.9058 365.9325 366.0679 366.1148
   366.3168 366.3342 366.5674 366.5856 366.8869 366.9637 367.7291 367.7553
   368.1767 368.2198 368.2756 368.3561 368.3566 368.4784 369.1156 369.2412
   369.2605 369.2825 369.8465 369.8586 370.1787 370.2698 370.5395 370.6352
   370.9916 371.1249 371.1854 371.3285 372.0562 372.1216 372.2737 372.3059
   372.3492 372.4915 372.6516 372.7870 373.0343 373.3756 373.4673 373.8027
   373.8491 374.1652 374.2469 374.2687 374.5180 374.6011 374.6202 374.7275
   374.8526 374.8869 374.9013 376.0379 376.0497 376.2700 376.3879 376.7113
   376.7799 376.8908 376.9602 377.1092 377.1219 377.3071 377.6075 377.7212
   377.8773 377.9537 378.1031 378.1275 378.5336 378.7498 378.7604 378.9632
   379.1047 379.1130 379.2144 379.2154 379.4419 379.5770 379.6095 379.7052
   380.0594 380.0852 380.4264 380.4554 380.4960 380.5329 380.5408 380.6659
   380.8724 381.1379 381.2403 381.3532 381.3683 381.3935 381.3943 382.0465
   382.1208 382.1454 382.2129 382.4511 382.4865 382.7635 382.8104 382.8296
   382.8586 382.9213 382.9602 383.0684 383.2420 383.5861 383.6390 383.8115
   383.8169 384.2521 384.2541 384.4116 384.4346 384.4653 384.5635 384.9287
   384.9564 385.2349 386.1052 386.1322 386.2686 386.2777 386.4325 386.4679
   386.4696 386.7229 386.7366 386.9668 387.0017 387.0356 387.0662 387.2230
   387.3158 387.6331 387.7091 387.7195 387.8553 387.8675 387.9801 388.0450
   388.1113 388.1722 388.3107 388.3821 388.4145 388.4283 388.4568 388.5720
   388.8015 388.9611 388.9643 389.0972 389.3208 389.3658 389.6453 389.7930
   389.8056 389.9247 389.9429 390.3317 390.6460 390.7196 390.7480 390.7787
   390.7960 391.8599 391.9568 391.9977 392.0776 392.6868 392.8338 392.8761
   392.9488 392.9909 393.0123 393.1314 393.1676 393.2016 393.2094 393.3983
   393.5066 393.5351 393.5607 393.6332 393.6587 393.7307 393.8764 393.8843
[...]
   419.7362 419.7368 419.8923 419.9015 419.9447 420.2383 420.2461 420.5824
   420.9838 421.0242 421.0256 421.0417 421.0431 421.0779 421.0855 421.1147
   421.1380 421.2137 421.2351 421.2508 421.2649 421.3423 421.3448 421.3519
   421.3536 422.1898 422.2380 422.2448 422.2466 422.7859 422.7986 423.0048
   423.0199 423.3634 423.3905 423.3962 423.3985 423.4131 423.4152 423.7130
   423.7212 423.8701 423.8829 424.2695 424.3371 424.6593 424.6967 424.8795
   424.8879 425.0506 425.0641 425.0668 425.0677 425.0754 425.1044 425.1736
   425.1946 425.2526 425.4664 425.4949 425.5962 425.6131 425.6650 425.8351
   425.8395 425.8433 425.8722 426.2463 426.3170 426.3617 426.4001 426.4012
   426.4375 426.4668 426.4677 426.4809 426.5134 426.5353 426.5587 426.9081
   426.9104 427.1785 427.1918 427.1979 427.2012 427.2371 427.2402 427.2582
   427.2608 427.2783 427.2821 427.3047 427.3195 427.5114 427.5297 427.5491
   427.5809 427.7066 427.7095 427.7910 427.8870 427.8887 427.9434 427.9446
   427.9968 428.6167 428.6272 428.9518 428.9688 429.0904 429.0971 429.7884
   429.8188 429.8356 429.8378 429.9967 430.0041 430.1582 430.1643 430.1864
   430.3300 430.3667 430.3702 430.3820 430.4132 430.5156 430.5475 430.6462
   430.6542 430.6563 430.6646 430.7609 430.7646 431.0029 431.0035 431.1836
   431.2010 431.3261 431.3480 431.3709 431.3776 431.5811 431.5923 431.5959
   431.6051 432.4829 432.5027 432.5210 432.5242 433.0289 433.0590 433.2974
   433.3086 434.2351 434.3153 434.3374 434.3413 434.3668 434.4342 434.6777
   434.6998 434.7512 434.7559 434.9654 435.0266 435.0428 435.0434 435.1591
   435.1714 435.1747 435.1822 435.2318 435.2387 435.2565 435.2608 435.2659
   435.2850 435.3074 435.3089 435.8301 435.8349 435.8622 435.8689 435.9071
   435.9289 436.1261 436.1266 436.1567 436.1754 436.6422 436.6444 436.7866
   436.7870 436.9745 436.9805 436.9901 436.9964 437.0010 437.0254 437.3031
   437.3051 437.8051 437.8108 437.8139 437.8283 438.2702 438.3154 438.3221
   438.3597 438.6453 438.7023 438.7212 438.7494 438.9448 438.9479 439.1275
   439.1528 439.1529 439.1582 439.5671 439.5680 439.7424 439.7514 439.7520
   439.7624 440.7303 440.7412 440.7518 440.7547 440.8062 440.8272 441.5362
   441.5708 441.6197 441.6431 441.6499 441.6603 441.7361 441.7392 441.9730
   441.9985 442.2571 442.2667 442.4378 442.5169 442.6318 442.6417 442.9466
   442.9611 443.1488 443.1753 443.6300 443.6370 443.7726 443.7923 443.8053
   443.8125 443.8799 443.8806 444.3846 444.3862 444.6127 444.6379 444.6475
   444.6492 444.6527 444.6578 444.7732 444.7896 444.7955 444.8046 445.0407
   445.0449 445.0487 445.0708 446.3835 446.3976 446.6935 446.7287 446.7617
   446.7880 447.0202 447.0384 447.0409 447.0434 447.2071 447.2219 447.2773
   447.2876 447.2940 447.2946 447.5670 447.5833 448.5162 448.6182 448.7149
   448.7464 448.7502 448.7506 449.2977 449.3109 449.4669 449.5093 449.7292
   449.7669 449.9694 449.9752 450.1440 450.1545 450.8518 450.8605 450.9019
   450.9185 450.9203 450.9238 450.9455 450.9463 452.5136 452.5290 452.5425
   452.5554 452.8493 452.8907 452.9785 452.9871 453.3872 453.5025 453.5157
   453.5459 453.6446 453.6555 453.9257 453.9271 453.9316 453.9393 453.9629
   453.9743 454.5535 454.5630 454.5687 454.5751 454.8820 454.8833 454.8987
   454.9086 455.2671 455.2677 455.2678 455.2741 456.4663 456.5334 456.5903
   456.6217 456.6279 456.6313 457.2982 457.3166 457.3489 457.3584 457.3628
   457.3939 457.5864 457.6183 457.7286 457.7403 457.8566 457.8674 458.0227
   458.0452 458.0470 458.0487 458.1206 458.1266 458.4428 458.4724 458.7999
   458.8093 458.8560 458.8584 459.1858 459.1971 459.6200 459.6882 460.2187
   460.2193 460.4361 460.4418 460.6619 460.6675 460.8299 460.8395 460.9994
   461.0289 461.0761 461.1153 461.1224 461.1288 461.1441 461.1627 461.7376
   461.7510 461.8172 461.8552 461.8553 461.8557 461.9691 461.9712 462.4671
   462.4890 462.8147 462.8254 463.0382 463.0437 463.0607 463.0699 463.2662
   463.2736 463.3316 463.3349 463.8922 463.9195 464.5672 464.5701 464.9622
   465.0072 465.0115 465.0123 465.6970 465.7418 465.7604 465.7844 465.8675
   465.8882 465.9010 465.9204 466.0377 466.0417 466.1420 466.1538 466.1603
   466.1606 467.1699 467.2684 467.8920 467.9031 467.9753 467.9963 468.2438
   468.2565 468.4444 468.4544 468.4631 468.4663 468.7478 468.7586 469.4185
   469.4309 469.4316 469.4580 469.8381 469.8552 469.8838 469.8972 470.2988
   470.3480 470.3531 470.3604 470.5816 470.5852 470.6266 470.6382 471.0664
   471.0695 471.0848 471.0921 473.0807 473.1592 473.3957 473.4641 473.4888
   473.5651 473.5921 473.7318 473.7941 473.8004 473.8082 473.8200 473.8302
   474.3100 474.3563 474.4222 474.4237 474.5639 474.5724 474.5935 474.6277
   475.0890 475.0901 475.8548 475.9132 476.2008 476.2235 476.2313 476.2727
   476.8851 476.9246 477.3537 477.3617 477.5153 477.5164 477.5397 477.5803
   477.5963 477.6305 477.6404 477.6436 477.6495 477.8761 478.0664 478.0840
   478.4822 478.8821 479.7270 479.7422 479.7621 479.7958 479.7980 479.8276
   479.8952 479.9040 479.9975 480.0921 480.1926 480.2005 480.4532 480.4895
   480.5582 480.5651 480.7741 480.7827 480.8436 480.9162 481.5660 481.5668
   481.8930 481.8967 482.0824 482.0919 482.1166 482.1302 482.2578 482.2611
   482.9916 483.0472 483.1735 483.1774 483.4316 483.4320 483.6105 483.6538
   483.6879 483.7077 484.5198 484.5199 484.6072 484.6160 485.4386 485.4592
   485.5591 485.5831 485.8183 485.8582 486.3223 486.3953 486.7829 486.7901
   487.3826 487.4476 487.5367 487.5700 487.6893 487.7022 487.7770 487.7978
   487.8343 487.8361 488.3003 488.3110 488.4826 488.5591 488.5622 488.5788
   488.6415 488.6588 488.8802 488.9767 488.9802 489.1995 489.5565 489.5652
   489.6369 489.6499 489.6772 489.6933 489.8832 489.9080 489.9139 489.9962
   490.2760 490.2782 490.5685 490.5688 490.5743 490.6228 491.1342 491.1353
   491.3114 491.3306 491.3684 491.3873 491.8086 491.8206 492.0696 492.0876
   493.4365 493.4570 493.4616 493.4743 493.5006 493.5289 493.8163 493.8312
   493.9403 493.9419 494.5080 495.0974 495.0976 495.1001 495.1746 495.3342
   495.3360 495.3722 495.3964 495.7215 496.1688 496.2377 496.2454 496.2511
   496.2670 496.6647 496.6654 496.7048 497.3599 497.4368 497.5522 497.5539
   497.7353 497.7380 498.0267 498.0578 498.0619 498.1034 498.1664 498.1683
   499.9745 499.9801 500.0724 500.0771 500.0819 500.0896 500.5579 500.5598
   500.6123 500.6148 500.6603 500.6811 500.9640 500.9709 501.3671 501.4067
   501.4941 501.7886 501.7994 501.8097 501.8342 501.9407 501.9431 502.3477
   502.5077 502.9213 502.9545 502.9959 503.0113 503.1288 503.1290 503.1293
   503.1361 503.7105 503.8310 504.0304 504.0689 504.5993 504.6263 504.6542
   504.6683 505.4049 505.4700 505.5856 505.5902 505.7269 505.7309 506.0245
   506.0410 506.1816 506.1823 506.6007 506.6398 506.6728 506.6967 506.7427
   506.7608 506.9974 507.0165 507.0167 507.0934 507.1066 507.1162 507.5903
   507.5935 507.6805 507.6831 507.8358 507.8456 508.2666 508.3126 508.7353
   508.7485 508.9510 508.9578 509.0399 509.0517 509.0959 509.1013 509.1467
   509.1692 509.1695 509.1762 509.5290 509.5527 510.2756 510.3171 510.3644
   510.3662 510.5667 510.5781 511.0704 511.0955 511.1011 511.1638 511.3548
   511.3574 511.3715 511.3744 511.5009 511.5017 511.7990 511.8089 511.8932
   511.9577 511.9789 512.0223 512.2781 512.3010 512.4534 512.4692 512.5410
   512.5446 512.5775 512.5964 512.9384 512.9392 513.2026 513.2102 513.9803
   513.9896 513.9935 514.0215 514.2865 514.2911 514.4313 514.4374 514.4430
   514.4721 514.4828 514.4847 514.7139 514.7414 515.2245 515.2291 515.2430
   515.2572 515.9889 515.9917 516.0020 516.0107 516.2464 516.2726 516.2865
   516.3073 516.5480 516.5720 516.6821 516.6824 516.7662 516.7749 516.8756
   517.0704 517.0732 517.2120 517.2179 517.2926 517.2985 517.4702 517.4798
   517.8150 517.8402 518.3382 518.3403 518.3951 518.3972 518.4016 518.4089
   518.4154 518.4332 518.4940 518.5038 518.6754 518.8109 519.1921 519.1954
   519.4318 519.4318 519.4343 519.4426 519.6997 519.7024 519.8162 519.8261
   520.6596 520.6950 520.7069 520.7146 521.9696 521.9904 522.0103 522.0239
   522.0289 522.0348 522.4746 522.4816 522.5344 522.6053 522.7795 523.1043
   523.1393 523.1397 523.1485 523.1796 523.1859 523.2461 523.2660 523.5120
   523.5163 523.5277 523.5317 523.6685 523.7979 523.8015 523.8206 523.8276
   523.8356 524.6788 524.6806 524.6818 524.6992 524.9427 524.9563 524.9919
   524.9950 525.0601 525.1642 525.1983 525.2035 525.2117 525.2150 525.5397
   525.5552 526.0474 526.0525 526.8821 526.9116 526.9231 526.9251 527.3409
   527.3553 527.8977 527.9012 528.1266 528.2066 528.2393 528.2694 528.3371
   528.3371 528.6196 528.6245 528.6356 528.6508 528.7792 528.7875 528.7939
   528.7946 529.1541 529.1555 529.1587 529.1641 529.5989 529.6006 529.8094
   529.8277 530.1901 530.1914 530.3951 530.4201 530.6232 530.6702 530.9082
   530.9420 531.0759 531.0771 531.1774 531.1829 531.2287 531.2304 531.3182
   531.3376 531.3755 531.3844 531.4192 531.4201 531.5789 531.5813 531.8092
   531.8126 531.8608 531.8661 532.5516 532.5545 532.5578 532.5654 533.7916
   533.8090 533.8188 533.8274 534.4296 534.4317 534.7781 534.7794 534.7966
   534.8259 535.0102 535.0222 535.0230 535.0336 535.6355 535.6591 535.6627
   535.6681 536.4311 536.4627 536.5019 536.5034 536.6231 536.6341 537.6742
   537.6839 537.6883 537.7018 538.3182 538.3414 538.3481 538.3505 538.5503
   538.5662 538.6608 538.6710 538.7561 538.7678 538.9979 539.0211 539.1383
   539.1527 539.2850 539.3146 539.3230 539.3240 539.4654 539.4666 539.4955
   539.4986 539.6168 539.6187 539.8134 539.8295 539.9892 539.9957 541.6022
   541.6181 541.6569 541.6598 541.6709 541.6789 541.7207 541.7214 541.8267
   541.8518 541.8642 541.8781 542.0963 542.1064 542.1101 542.1112 542.4520
   542.4538 542.4556 542.4647 543.0759 543.1076 543.1976 543.2031 543.4689
   543.4707 543.9184 543.9263 543.9438 543.9455 544.0977 544.1117 544.4829
   544.4853 544.4862 544.5056 544.7181 544.7209 544.7878 544.7990 545.6014
   545.6217 545.6256 545.6289 545.7921 545.7950 546.0649 546.0785 546.0795
   546.0939 547.0976 547.1001 547.1016 547.1035 547.1447 547.1473 548.3389
   548.3977 549.0258 549.0289 549.7943 549.8223 549.8292 549.8381 550.5891
   550.6030 550.9409 550.9505 551.5358 551.5515 551.5580 551.5689 551.7260
   551.7863 552.3218 552.3286 552.6908 552.6990 552.7028 552.7117 552.7122
   552.7259 552.7367 552.7424 552.9173 552.9527 553.5159 553.5313 553.5484
   553.5749 553.9717 553.9743 554.0766 554.0858 554.3284 554.3495 554.6681
   554.6797 554.6844 554.6934 554.7933 554.8041 554.8184 554.8221 555.2710
   555.2814 555.2866 555.2982 555.7703 555.7809 555.7826 555.7926 556.2813
   556.3112 556.3166 556.3200 556.5019 556.5183 556.9387 556.9525 556.9584
   556.9702 557.0692 557.0722 557.6811 557.6878 557.7632 557.7708 557.7710
   557.7723 558.3651 558.3721 558.3774 558.4113 558.4292 558.4335 558.5643
   558.5688 560.1235 560.1252 560.1400 560.1656 560.4728 560.4808 560.4960
   560.5032 560.8796 560.8838 560.8940 560.8984 561.5762 561.5998 561.6330
   561.6357 562.0836 562.3849 562.7661 562.7755 562.7828 562.7934 562.9196
   563.1758 563.1906 563.1946 563.2024 563.5268 563.7835 563.8692 564.3744
   564.3806 564.6977 564.6980 565.4102 565.4266 565.8158 565.8358 566.0254
   566.0275 566.2379 566.2636 566.2674 566.2693 567.1281 567.1338 567.2085
   567.2479 567.6985 567.7033 567.7126 567.7253 567.9700 567.9793 568.9624
   569.0028 569.0232 569.0315 569.0771 569.1356 569.7422 569.7534 569.7617
   569.7683 569.8019 569.8078 570.1007 570.1053 570.1104 570.1192 571.1209
   571.1371 571.1429 571.1510 571.1609 571.2141 571.5760 571.5774 571.7882
   571.8042 571.9969 572.0059 572.4580 572.4802 572.5050 572.5204 572.5587
   572.5599 572.6046 572.6310 572.6801 572.6896 572.8559 573.1646 573.2091
   573.2197 573.8751 573.8823 574.4414 574.4708 574.5390 574.6162 575.0145
   575.0266 575.0658 575.0817 575.3018 575.3038 575.5091 575.5147 575.8106
   575.8129 576.1087 576.2012 576.2172 576.2343 576.3079 576.3121 576.8856
   576.8896 576.9001 576.9018 577.8647 577.8716 577.9611 577.9655 578.3359
   578.3437 578.3531 578.3665 579.1924 579.1961 579.2150 579.2412 579.6730
   579.6787 579.8044 579.8130 579.8150 579.8227 580.4913 580.4997 580.5006
   580.5051 581.6134 581.6219 581.6225 581.6277 582.3831 582.3854 582.3861
   582.3900 582.7645 582.8205 582.8365 582.9241 582.9274 583.0008 583.1942
   583.1980 583.2108 583.2991 583.5926 583.5941 583.6799 583.8039 583.8049
   583.8989 583.9010 584.0903 585.4280 585.4546 585.4570 585.4979 585.5516
   585.5517 585.8821 585.9092 586.2210 586.2965 586.5275 586.5929 586.8318
   586.8360 587.0406 587.0531 587.6663 587.6872 587.7818 587.7869 587.9729
   587.9734 587.9832 587.9940 588.0304 588.0406 588.0690 588.1006 588.1695
   588.1799 588.4989 588.5194 588.5441 588.6048 588.6065 588.6496 588.7367
   588.7434 588.7963 588.7963 588.8691 588.8721 589.0853 589.0856 589.6429
   589.6668 589.6753 589.6926 590.2156 590.2341 590.4214 590.4253 592.3247
   592.3262 592.3402 592.3497 592.8086 592.8182 593.7919 593.8198 593.9480
   593.9829 594.9173 594.9764 596.1252 596.2490 596.2546 596.4027 596.6571
   596.6670 596.7052 596.7312 597.0680 597.0687 597.1760 597.1794 597.2081
   597.2180 597.2801 597.3104 597.9652 597.9686 597.9933 597.9941 598.2702
   598.2748 598.3794 598.4056 598.4574 598.4633 598.5728 598.5745 598.7243
   598.7310 598.7597 598.7667 598.9207 598.9231 599.2894 599.2940 599.3910
   599.3954 599.5881 599.5921 599.6821 599.6896 599.7201 599.7248 599.7546
   599.7592 599.8592 599.8686 600.1973 600.1980 600.2001 600.2485 600.3054
   600.3287 600.4154 600.4259 600.8435 600.8619 600.9922 601.0037 601.1050
   601.1094 601.3769 601.3799 601.6301 601.6512 601.6577 601.6599 601.9604
   601.9663 601.9790 601.9912 602.2963 602.2988 602.6599 602.6703 602.7240
   602.7272 602.7943 602.7957 603.1259 603.1260 603.3173 603.3271 603.3349
   603.3467 603.7066 603.7710 603.9863 603.9927 604.0066 604.0156 604.2740
   604.2780 604.4016 604.4185 604.6633 604.6936 604.7400 604.7415 604.7977
   604.8268 605.0291 605.0394 605.0607 605.0624 605.2086 605.2093 605.2162
   605.2237 605.7036 605.7055 605.7099 605.7144 606.2507 606.2612 606.4494
   606.4598 606.4635 606.4708 606.4946 606.5012 606.5175 606.5338 606.6585
   606.6671 607.2312 607.2314 607.2326 607.2353 607.2725 607.2763 607.6144
   607.6231 607.7914 607.7999 607.9501 607.9586 607.9861 607.9870 608.7117
   608.7275 608.8816 608.8905 608.9400 608.9507 608.9522 608.9631 609.0193
   609.0201 609.0299 609.0322 609.0822 609.0855 609.2362 609.2418 609.2578
   609.2595 609.4655 609.4683 610.0473 610.0678 610.2679 610.2861 610.2951
   610.3028 610.3985 610.4020 610.4043 610.4112 610.4383 610.4464 610.5547
   610.5628 610.7671 610.7745 610.9063 610.9320 610.9738 610.9889 611.0768
   611.0771 611.2749 611.2774 611.2804 611.2819 611.7022 611.7078 611.8257
   611.8338 612.2254 612.2297 612.5876 612.5878 612.6264 612.6305 612.6384
   612.6431 613.7020 613.7203 613.7338 613.7358 613.9016 613.9081 613.9188
   613.9196 613.9372 613.9679 614.2127 614.2223 614.2257 614.2315 614.4460
   614.4491 614.4498 614.4520 614.5361 614.5465 614.5515 614.5559 614.9174
   614.9256 615.1306 615.1355 615.1645 615.1741 615.9906 615.9937 615.9949
   615.9980 616.2154 616.2677 616.9074 616.9142 617.0718 617.0755 617.0940
   617.1008 617.2658 617.2785 618.2556 618.2605 618.3828 618.3833 618.3910
   618.3983 618.4293 618.4401 618.5278 618.5311 618.5366 618.5473 618.7748
   618.7850 618.8917 618.9111 618.9151 618.9201 619.0688 619.1167 619.2065
   619.2141 619.5810 619.5872 619.6887 619.6901 619.6928 619.6958 619.7131
   619.7208 619.8496 619.8584 620.3746 620.3785 620.5844 620.6128 620.6535
   620.6947 620.7032 620.7262 620.8908 620.8946 620.9767 621.0155 621.0193
   621.0229 621.0259 621.0263 621.0824 621.1119 621.4112 621.4144 621.9676
   621.9772 621.9786 621.9918 622.5011 622.5522 622.6369 622.6575 622.9652
   622.9685 623.0646 623.0742 623.1024 623.1029 623.2539 623.2555 623.2655
   623.2722 623.3169 623.3211 623.3316 623.3363 623.3718 623.3721 623.9466
   623.9470 623.9474 623.9558 624.5404 624.5619 624.5844 624.5864 625.0775
   625.0871 625.0989 625.1065 625.3482 625.4695 625.4954 625.5002 625.6169
   625.6317 625.6489 625.6521 625.7653 625.7704 625.7897 625.7965 626.1549
   626.1792 626.4364 626.4479 626.4493 626.4632 626.8003 626.8019 626.8059
   626.8153 626.8946 626.8998 626.9120 626.9266 626.9552 626.9624 626.9700
   626.9719 627.0350 627.0360 627.1308 627.1326 627.1563 627.1592 628.0887
   628.0965 628.3447 628.3565 628.5689 628.5690 628.5941 628.6017 628.6051
   628.6106 628.6140 628.6215 628.6307 628.6341 628.9251 629.0037 629.0057
   629.0067 629.0176 630.3388 630.3642 630.3958 630.4048 630.4125 630.4179
   630.7426 630.7520 630.7976 630.8075 630.9120 630.9153 631.1727 631.1806
   631.2146 631.2327 631.2675 631.2676 631.2830 631.2907 631.3485 631.3514
   632.1589 632.1598 632.1647 632.1669 632.3217 632.3270 632.4495 632.4997
   632.5420 632.7044 633.4076 633.5646 633.6254 633.6325 633.6908 633.7044
   633.7087 633.7165 634.0049 634.0267 634.2362 634.2697 634.4738 634.5854
   634.7911 634.8014 634.8233 634.8468 634.8512 634.8605 634.9356 634.9479
   634.9723 634.9822 635.0807 635.0912 635.1180 635.1266 635.1283 635.1302
   635.1522 635.1569 635.2806 635.4097 636.0096 636.0187 636.0253 636.0316
   636.3167 636.3279 636.3414 636.3419 636.3670 636.3753 636.5586 636.5774
   636.6108 636.6156 636.8394 636.8408 637.1221 637.5650 637.5697 637.5781
   637.5875 637.6083 637.6164 638.5080 638.5152 638.5654 638.5742 638.7560
   638.7567 638.7737 638.7760 639.0031 639.0072 639.2077 639.2101 639.2163
   639.2412 639.2589 639.2890 639.4516 639.4636 639.5361 639.5392 640.3494
   640.3557 640.4486

     Writing output data file BN.save/
 
     init_run     :      0.09s CPU      0.21s WALL (       1 calls)
     electrons    : 177495.98s CPU 178676.62s WALL (       1 calls)

     Called by init_run:
     wfcinit      :      0.00s CPU      0.00s WALL (       1 calls)
     wfcinit:atom :      0.03s CPU      0.06s WALL (      13 calls)
     wfcinit:wfcr :   1426.54s CPU   1444.99s WALL (      13 calls)
     potinit      :      0.01s CPU      0.11s WALL (       1 calls)
     hinit0       :      0.06s CPU      0.07s WALL (       1 calls)

     Called by electrons:
     c_bands      : 177495.90s CPU 178675.19s WALL (       1 calls)
     v_of_rho     :      0.01s CPU      0.01s WALL (       1 calls)
     v_h          :      0.00s CPU      0.00s WALL (       1 calls)
     v_xc         :      0.00s CPU      0.00s WALL (       1 calls)

     Called by c_bands:
     init_us_2    :      0.02s CPU      0.02s WALL (      13 calls)
     ccgdiagg     : 158781.91s CPU 159807.99s WALL (      78 calls)
     wfcrot       :   8447.06s CPU   8544.61s WALL (      78 calls)

     Called by sum_band:

     Called by *cgdiagg:
     h_psi        :   8735.75s CPU   8858.91s WALL ( 2784148 calls)
     cdiaghg      :   5014.38s CPU   5045.18s WALL (      78 calls)

     Called by h_psi:
     h_psi:pot    :   8671.10s CPU   8778.63s WALL ( 2784148 calls)
     h_psi:calbec :    534.09s CPU    541.31s WALL ( 2784148 calls)
     vloc_psi     :   7685.54s CPU   7779.26s WALL ( 2784148 calls)
     add_vuspsi   :    423.46s CPU    434.20s WALL ( 2784148 calls)
     hs_1psi      :   8113.23s CPU   8206.83s WALL ( 2784070 calls)
     s_1psi       :    338.32s CPU    348.23s WALL ( 2784070 calls)

     General routines
     calbec       :    807.95s CPU    832.39s WALL ( 5568218 calls)
     fft          :      0.00s CPU      0.01s WALL (       4 calls)
     fftw         :   6216.11s CPU   6293.38s WALL ( 6193700 calls)
     davcio       :      0.08s CPU     29.59s WALL (      26 calls)
 
     Parallel routines
 
     PWSCF        :   2d 1h18m CPU   2d 1h38m WALL

 
   This run was terminated on:  13:29: 0   3Jul2020            

=------------------------------------------------------------------------------=
   JOB DONE.
=------------------------------------------------------------------------------=
