
     Program PWSCF v.6.7GPU starts on  9Jun2022 at  9: 8:55 

     This program is part of the open-source Quantum ESPRESSO suite
     for quantum simulation of materials; please cite
         "P. Giannozzi et al., J. Phys.:Condens. Matter 21 395502 (2009);
         "P. Giannozzi et al., J. Phys.:Condens. Matter 29 465901 (2017);
         "P. Giannozzi et al., J. Chem. Phys. 152 154105 (2020);
          URL http://www.quantum-espresso.org", 
     in publications or presentations arising from this work. More details at
     http://www.quantum-espresso.org/quote

     Parallel version (MPI & OpenMP), running on     256 processor cores
     Number of MPI processes:                64
     Threads/MPI process:                     4

     MPI processes distributed on     1 nodes
     K-points division:     npool     =      64
     Waiting for input...
     Reading input from standard input
Warning: card &CELL ignored
Warning: card / ignored

     Current dimensions of program PWSCF are:
     Max number of different atomic species (ntypx) = 10
     Max number of k-points (npk) =  40000
     Max angular momentum in pseudopotentials (lmaxx) =  3
     Message from routine setup:
     using ibrav=0 with symmetry is DISCOURAGED, use correct ibrav instead

     Subspace diagonalization in iterative solution of the eigenvalue problem:
     a serial algorithm will be used

 
     G-vector sticks info
     --------------------
     sticks:   dense  smooth     PW     G-vecs:    dense   smooth      PW
     Sum         571     571    187                 8873     8873    1687
 
     Using Slab Decomposition
 


     bravais-lattice index     =            0
     lattice parameter (alat)  =      10.1645  a.u.
     unit-cell volume          =     262.5448 (a.u.)^3
     number of atoms/cell      =            2
     number of atomic types    =            1
     number of electrons       =         8.00
     number of Kohn-Sham states=            8
     kinetic-energy cutoff     =      40.0000  Ry
     charge density cutoff     =     160.0000  Ry
     scf convergence threshold =      1.0E-10
     mixing beta               =       0.7000
     number of iterations used =            8  plain     mixing
     Exchange-correlation= SLA  PZ   NOGX NOGC
                           (   1   1   0   0   0   0   0)

     celldm(1)=  10.164542  celldm(2)=   0.000000  celldm(3)=   0.000000
     celldm(4)=   0.000000  celldm(5)=   0.000000  celldm(6)=   0.000000

     crystal axes: (cart. coord. in units of alat)
               a(1) = (  -0.500000   0.000000   0.500000 )  
               a(2) = (   0.000000   0.500000   0.500000 )  
               a(3) = (  -0.500000   0.500000   0.000000 )  

     reciprocal axes: (cart. coord. in units 2 pi/alat)
               b(1) = ( -1.000000 -1.000000  1.000000 )  
               b(2) = (  1.000000  1.000000  1.000000 )  
               b(3) = ( -1.000000  1.000000 -1.000000 )  


     PseudoPot. # 1 for Si read from file:
     ./si.cpi.UPF
     MD5 check sum: b49e38a2651755062821566f72dc82b2
     Pseudo is Norm-conserving, Zval =  4.0
     Generated by new atomic code, or converted to UPF format
     Using radial grid of  495 points,  2 beta functions with: 
                l(1) =   1
                l(2) =   2

     atomic species   valence    mass     pseudopotential
        Si             4.00    28.08600     Si( 1.00)

     48 Sym. Ops., with inversion, found (36 have fractional translation)


                                    s                        frac. trans.

      isym =  1     identity                                     

 cryst.   s( 1) = (     1          0          0      )
                  (     0          1          0      )
                  (     0          0          1      )

 cart.    s( 1) = (  1.0000000  0.0000000  0.0000000 )
                  (  0.0000000  1.0000000  0.0000000 )
                  (  0.0000000  0.0000000  1.0000000 )


      isym =  2     180 deg rotation - cart. axis [0,0,1]        

 cryst.   s( 2) = (     0          1         -1      )    f =(  0.0000000 )
                  (     1          0         -1      )       (  0.0000000 )
                  (     0          0         -1      )       ( -0.5000000 )

 cart.    s( 2) = ( -1.0000000  0.0000000  0.0000000 )    f =(  0.2500000 )
                  (  0.0000000 -1.0000000  0.0000000 )       ( -0.2500000 )
                  (  0.0000000  0.0000000  1.0000000 )       (  0.0000000 )


      isym =  3     180 deg rotation - cart. axis [0,1,0]        

 cryst.   s( 3) = (    -1          0          0      )    f =( -0.5000000 )
                  (    -1          0          1      )       (  0.0000000 )
                  (    -1          1          0      )       (  0.0000000 )

 cart.    s( 3) = ( -1.0000000  0.0000000  0.0000000 )    f =(  0.2500000 )
                  (  0.0000000  1.0000000  0.0000000 )       (  0.0000000 )
                  (  0.0000000  0.0000000 -1.0000000 )       ( -0.2500000 )


      isym =  4     180 deg rotation - cart. axis [1,0,0]        

 cryst.   s( 4) = (     0         -1          1      )    f =(  0.0000000 )
                  (     0         -1          0      )       ( -0.5000000 )
                  (     1         -1          0      )       (  0.0000000 )

 cart.    s( 4) = (  1.0000000  0.0000000  0.0000000 )    f =(  0.0000000 )
                  (  0.0000000 -1.0000000  0.0000000 )       ( -0.2500000 )
                  (  0.0000000  0.0000000 -1.0000000 )       ( -0.2500000 )


      isym =  5     180 deg rotation - cart. axis [1,1,0]        

 cryst.   s( 5) = (     0         -1          0      )
                  (    -1          0          0      )
                  (     0          0         -1      )

 cart.    s( 5) = (  0.0000000  1.0000000  0.0000000 )
                  (  1.0000000  0.0000000  0.0000000 )
                  (  0.0000000  0.0000000 -1.0000000 )


      isym =  6     180 deg rotation - cart. axis [1,-1,0]       

 cryst.   s( 6) = (    -1          0          1      )    f =(  0.0000000 )
                  (     0         -1          1      )       (  0.0000000 )
                  (     0          0          1      )       ( -0.5000000 )

 cart.    s( 6) = (  0.0000000 -1.0000000  0.0000000 )    f =(  0.2500000 )
                  ( -1.0000000  0.0000000  0.0000000 )       ( -0.2500000 )
                  (  0.0000000  0.0000000 -1.0000000 )       (  0.0000000 )


      isym =  7      90 deg rotation - cart. axis [0,0,-1]       

 cryst.   s( 7) = (     0          1          0      )    f =(  0.0000000 )
                  (     0          1         -1      )       ( -0.5000000 )
                  (    -1          1          0      )       (  0.0000000 )

 cart.    s( 7) = (  0.0000000  1.0000000  0.0000000 )    f =(  0.0000000 )
                  ( -1.0000000  0.0000000  0.0000000 )       ( -0.2500000 )
                  (  0.0000000  0.0000000  1.0000000 )       ( -0.2500000 )


      isym =  8      90 deg rotation - cart. axis [0,0,1]        

 cryst.   s( 8) = (     1          0         -1      )    f =( -0.5000000 )
                  (     1          0          0      )       (  0.0000000 )
                  (     1         -1          0      )       (  0.0000000 )

 cart.    s( 8) = (  0.0000000 -1.0000000  0.0000000 )    f =(  0.2500000 )
                  (  1.0000000  0.0000000  0.0000000 )       (  0.0000000 )
                  (  0.0000000  0.0000000  1.0000000 )       ( -0.2500000 )


      isym =  9     180 deg rotation - cart. axis [1,0,1]        

 cryst.   s( 9) = (    -1          0          0      )
                  (     0          0         -1      )
                  (     0         -1          0      )

 cart.    s( 9) = (  0.0000000  0.0000000  1.0000000 )
                  (  0.0000000 -1.0000000  0.0000000 )
                  (  1.0000000  0.0000000  0.0000000 )


      isym = 10     180 deg rotation - cart. axis [-1,0,1]       

 cryst.   s(10) = (     1          0          0      )    f =( -0.5000000 )
                  (     1         -1          0      )       (  0.0000000 )
                  (     1          0         -1      )       (  0.0000000 )

 cart.    s(10) = (  0.0000000  0.0000000 -1.0000000 )    f =(  0.2500000 )
                  (  0.0000000 -1.0000000  0.0000000 )       (  0.0000000 )
                  ( -1.0000000  0.0000000  0.0000000 )       ( -0.2500000 )


      isym = 11      90 deg rotation - cart. axis [0,1,0]        

 cryst.   s(11) = (     0          1         -1      )    f =(  0.0000000 )
                  (    -1          1          0      )       ( -0.5000000 )
                  (     0          1          0      )       (  0.0000000 )

 cart.    s(11) = (  0.0000000  0.0000000  1.0000000 )    f =(  0.0000000 )
                  (  0.0000000  1.0000000  0.0000000 )       ( -0.2500000 )
                  ( -1.0000000  0.0000000  0.0000000 )       ( -0.2500000 )


      isym = 12      90 deg rotation - cart. axis [0,-1,0]       

 cryst.   s(12) = (     0         -1          1      )    f =(  0.0000000 )
                  (     0          0          1      )       (  0.0000000 )
                  (    -1          0          1      )       ( -0.5000000 )

 cart.    s(12) = (  0.0000000  0.0000000 -1.0000000 )    f =(  0.2500000 )
                  (  0.0000000  1.0000000  0.0000000 )       ( -0.2500000 )
                  (  1.0000000  0.0000000  0.0000000 )       (  0.0000000 )


      isym = 13     180 deg rotation - cart. axis [0,1,1]        

 cryst.   s(13) = (    -1          1          0      )    f =(  0.0000000 )
                  (     0          1          0      )       ( -0.5000000 )
                  (     0          1         -1      )       (  0.0000000 )

 cart.    s(13) = ( -1.0000000  0.0000000  0.0000000 )    f =(  0.0000000 )
                  (  0.0000000  0.0000000  1.0000000 )       ( -0.2500000 )
                  (  0.0000000  1.0000000  0.0000000 )       ( -0.2500000 )


      isym = 14     180 deg rotation - cart. axis [0,1,-1]       

 cryst.   s(14) = (     0          0         -1      )
                  (     0         -1          0      )
                  (    -1          0          0      )

 cart.    s(14) = ( -1.0000000  0.0000000  0.0000000 )
                  (  0.0000000  0.0000000 -1.0000000 )
                  (  0.0000000 -1.0000000  0.0000000 )


      isym = 15      90 deg rotation - cart. axis [-1,0,0]       

 cryst.   s(15) = (     0          0          1      )    f =(  0.0000000 )
                  (    -1          0          1      )       (  0.0000000 )
                  (     0         -1          1      )       ( -0.5000000 )

 cart.    s(15) = (  1.0000000  0.0000000  0.0000000 )    f =(  0.2500000 )
                  (  0.0000000  0.0000000  1.0000000 )       ( -0.2500000 )
                  (  0.0000000 -1.0000000  0.0000000 )       (  0.0000000 )


      isym = 16      90 deg rotation - cart. axis [1,0,0]        

 cryst.   s(16) = (     1         -1          0      )    f =( -0.5000000 )
                  (     1          0         -1      )       (  0.0000000 )
                  (     1          0          0      )       (  0.0000000 )

 cart.    s(16) = (  1.0000000  0.0000000  0.0000000 )    f =(  0.2500000 )
                  (  0.0000000  0.0000000 -1.0000000 )       (  0.0000000 )
                  (  0.0000000  1.0000000  0.0000000 )       ( -0.2500000 )


      isym = 17     120 deg rotation - cart. axis [-1,-1,-1]     

 cryst.   s(17) = (    -1          0          1      )    f =( -0.5000000 )
                  (    -1          1          0      )       (  0.0000000 )
                  (    -1          0          0      )       (  0.0000000 )

 cart.    s(17) = (  0.0000000  1.0000000  0.0000000 )    f =(  0.2500000 )
                  (  0.0000000  0.0000000  1.0000000 )       (  0.0000000 )
                  (  1.0000000  0.0000000  0.0000000 )       ( -0.2500000 )


      isym = 18     120 deg rotation - cart. axis [-1,1,1]       

 cryst.   s(18) = (     0          1          0      )
                  (     0          0          1      )
                  (     1          0          0      )

 cart.    s(18) = (  0.0000000 -1.0000000  0.0000000 )
                  (  0.0000000  0.0000000  1.0000000 )
                  ( -1.0000000  0.0000000  0.0000000 )


      isym = 19     120 deg rotation - cart. axis [1,1,-1]       

 cryst.   s(19) = (     1          0         -1      )    f =(  0.0000000 )
                  (     0          0         -1      )       (  0.0000000 )
                  (     0          1         -1      )       ( -0.5000000 )

 cart.    s(19) = (  0.0000000  1.0000000  0.0000000 )    f =(  0.2500000 )
                  (  0.0000000  0.0000000 -1.0000000 )       ( -0.2500000 )
                  ( -1.0000000  0.0000000  0.0000000 )       (  0.0000000 )


      isym = 20     120 deg rotation - cart. axis [1,-1,1]       

 cryst.   s(20) = (     0         -1          0      )    f =(  0.0000000 )
                  (     1         -1          0      )       ( -0.5000000 )
                  (     0         -1          1      )       (  0.0000000 )

 cart.    s(20) = (  0.0000000 -1.0000000  0.0000000 )    f =(  0.0000000 )
                  (  0.0000000  0.0000000 -1.0000000 )       ( -0.2500000 )
                  (  1.0000000  0.0000000  0.0000000 )       ( -0.2500000 )


      isym = 21     120 deg rotation - cart. axis [1,1,1]        

 cryst.   s(21) = (     0          0         -1      )    f =(  0.0000000 )
                  (     0          1         -1      )       (  0.0000000 )
                  (     1          0         -1      )       ( -0.5000000 )

 cart.    s(21) = (  0.0000000  0.0000000  1.0000000 )    f =(  0.2500000 )
                  (  1.0000000  0.0000000  0.0000000 )       ( -0.2500000 )
                  (  0.0000000  1.0000000  0.0000000 )       (  0.0000000 )


      isym = 22     120 deg rotation - cart. axis [-1,1,-1]      

 cryst.   s(22) = (    -1          1          0      )    f =( -0.5000000 )
                  (    -1          0          0      )       (  0.0000000 )
                  (    -1          0          1      )       (  0.0000000 )

 cart.    s(22) = (  0.0000000  0.0000000  1.0000000 )    f =(  0.2500000 )
                  ( -1.0000000  0.0000000  0.0000000 )       (  0.0000000 )
                  (  0.0000000 -1.0000000  0.0000000 )       ( -0.2500000 )


      isym = 23     120 deg rotation - cart. axis [1,-1,-1]      

 cryst.   s(23) = (     0          0          1      )
                  (     1          0          0      )
                  (     0          1          0      )

 cart.    s(23) = (  0.0000000  0.0000000 -1.0000000 )
                  ( -1.0000000  0.0000000  0.0000000 )
                  (  0.0000000  1.0000000  0.0000000 )


      isym = 24     120 deg rotation - cart. axis [-1,-1,1]      

 cryst.   s(24) = (     1         -1          0      )    f =(  0.0000000 )
                  (     0         -1          1      )       ( -0.5000000 )
                  (     0         -1          0      )       (  0.0000000 )

 cart.    s(24) = (  0.0000000  0.0000000 -1.0000000 )    f =(  0.0000000 )
                  (  1.0000000  0.0000000  0.0000000 )       ( -0.2500000 )
                  (  0.0000000 -1.0000000  0.0000000 )       ( -0.2500000 )


      isym = 25     inversion                                    

 cryst.   s(25) = (    -1          0          0      )
                  (     0         -1          0      )
                  (     0          0         -1      )

 cart.    s(25) = ( -1.0000000  0.0000000  0.0000000 )
                  (  0.0000000 -1.0000000  0.0000000 )
                  (  0.0000000  0.0000000 -1.0000000 )


      isym = 26     inv. 180 deg rotation - cart. axis [0,0,1]   

 cryst.   s(26) = (     0         -1          1      )    f =(  0.0000000 )
                  (    -1          0          1      )       (  0.0000000 )
                  (     0          0          1      )       ( -0.5000000 )

 cart.    s(26) = (  1.0000000  0.0000000  0.0000000 )    f =(  0.2500000 )
                  (  0.0000000  1.0000000  0.0000000 )       ( -0.2500000 )
                  (  0.0000000  0.0000000 -1.0000000 )       (  0.0000000 )


      isym = 27     inv. 180 deg rotation - cart. axis [0,1,0]   

 cryst.   s(27) = (     1          0          0      )    f =( -0.5000000 )
                  (     1          0         -1      )       (  0.0000000 )
                  (     1         -1          0      )       (  0.0000000 )

 cart.    s(27) = (  1.0000000  0.0000000  0.0000000 )    f =(  0.2500000 )
                  (  0.0000000 -1.0000000  0.0000000 )       (  0.0000000 )
                  (  0.0000000  0.0000000  1.0000000 )       ( -0.2500000 )


      isym = 28     inv. 180 deg rotation - cart. axis [1,0,0]   

 cryst.   s(28) = (     0          1         -1      )    f =(  0.0000000 )
                  (     0          1          0      )       ( -0.5000000 )
                  (    -1          1          0      )       (  0.0000000 )

 cart.    s(28) = ( -1.0000000  0.0000000  0.0000000 )    f =(  0.0000000 )
                  (  0.0000000  1.0000000  0.0000000 )       ( -0.2500000 )
                  (  0.0000000  0.0000000  1.0000000 )       ( -0.2500000 )


      isym = 29     inv. 180 deg rotation - cart. axis [1,1,0]   

 cryst.   s(29) = (     0          1          0      )
                  (     1          0          0      )
                  (     0          0          1      )

 cart.    s(29) = (  0.0000000 -1.0000000  0.0000000 )
                  ( -1.0000000  0.0000000  0.0000000 )
                  (  0.0000000  0.0000000  1.0000000 )


      isym = 30     inv. 180 deg rotation - cart. axis [1,-1,0]  

 cryst.   s(30) = (     1          0         -1      )    f =(  0.0000000 )
                  (     0          1         -1      )       (  0.0000000 )
                  (     0          0         -1      )       ( -0.5000000 )

 cart.    s(30) = (  0.0000000  1.0000000  0.0000000 )    f =(  0.2500000 )
                  (  1.0000000  0.0000000  0.0000000 )       ( -0.2500000 )
                  (  0.0000000  0.0000000  1.0000000 )       (  0.0000000 )


      isym = 31     inv.  90 deg rotation - cart. axis [0,0,-1]  

 cryst.   s(31) = (     0         -1          0      )    f =(  0.0000000 )
                  (     0         -1          1      )       ( -0.5000000 )
                  (     1         -1          0      )       (  0.0000000 )

 cart.    s(31) = (  0.0000000 -1.0000000  0.0000000 )    f =(  0.0000000 )
                  (  1.0000000  0.0000000  0.0000000 )       ( -0.2500000 )
                  (  0.0000000  0.0000000 -1.0000000 )       ( -0.2500000 )


      isym = 32     inv.  90 deg rotation - cart. axis [0,0,1]   

 cryst.   s(32) = (    -1          0          1      )    f =( -0.5000000 )
                  (    -1          0          0      )       (  0.0000000 )
                  (    -1          1          0      )       (  0.0000000 )

 cart.    s(32) = (  0.0000000  1.0000000  0.0000000 )    f =(  0.2500000 )
                  ( -1.0000000  0.0000000  0.0000000 )       (  0.0000000 )
                  (  0.0000000  0.0000000 -1.0000000 )       ( -0.2500000 )


      isym = 33     inv. 180 deg rotation - cart. axis [1,0,1]   

 cryst.   s(33) = (     1          0          0      )
                  (     0          0          1      )
                  (     0          1          0      )

 cart.    s(33) = (  0.0000000  0.0000000 -1.0000000 )
                  (  0.0000000  1.0000000  0.0000000 )
                  ( -1.0000000  0.0000000  0.0000000 )


      isym = 34     inv. 180 deg rotation - cart. axis [-1,0,1]  

 cryst.   s(34) = (    -1          0          0      )    f =( -0.5000000 )
                  (    -1          1          0      )       (  0.0000000 )
                  (    -1          0          1      )       (  0.0000000 )

 cart.    s(34) = (  0.0000000  0.0000000  1.0000000 )    f =(  0.2500000 )
                  (  0.0000000  1.0000000  0.0000000 )       (  0.0000000 )
                  (  1.0000000  0.0000000  0.0000000 )       ( -0.2500000 )


      isym = 35     inv.  90 deg rotation - cart. axis [0,1,0]   

 cryst.   s(35) = (     0         -1          1      )    f =(  0.0000000 )
                  (     1         -1          0      )       ( -0.5000000 )
                  (     0         -1          0      )       (  0.0000000 )

 cart.    s(35) = (  0.0000000  0.0000000 -1.0000000 )    f =(  0.0000000 )
                  (  0.0000000 -1.0000000  0.0000000 )       ( -0.2500000 )
                  (  1.0000000  0.0000000  0.0000000 )       ( -0.2500000 )


      isym = 36     inv.  90 deg rotation - cart. axis [0,-1,0]  

 cryst.   s(36) = (     0          1         -1      )    f =(  0.0000000 )
                  (     0          0         -1      )       (  0.0000000 )
                  (     1          0         -1      )       ( -0.5000000 )

 cart.    s(36) = (  0.0000000  0.0000000  1.0000000 )    f =(  0.2500000 )
                  (  0.0000000 -1.0000000  0.0000000 )       ( -0.2500000 )
                  ( -1.0000000  0.0000000  0.0000000 )       (  0.0000000 )


      isym = 37     inv. 180 deg rotation - cart. axis [0,1,1]   

 cryst.   s(37) = (     1         -1          0      )    f =(  0.0000000 )
                  (     0         -1          0      )       ( -0.5000000 )
                  (     0         -1          1      )       (  0.0000000 )

 cart.    s(37) = (  1.0000000  0.0000000  0.0000000 )    f =(  0.0000000 )
                  (  0.0000000  0.0000000 -1.0000000 )       ( -0.2500000 )
                  (  0.0000000 -1.0000000  0.0000000 )       ( -0.2500000 )


      isym = 38     inv. 180 deg rotation - cart. axis [0,1,-1]  

 cryst.   s(38) = (     0          0          1      )
                  (     0          1          0      )
                  (     1          0          0      )

 cart.    s(38) = (  1.0000000  0.0000000  0.0000000 )
                  (  0.0000000  0.0000000  1.0000000 )
                  (  0.0000000  1.0000000  0.0000000 )


      isym = 39     inv.  90 deg rotation - cart. axis [-1,0,0]  

 cryst.   s(39) = (     0          0         -1      )    f =(  0.0000000 )
                  (     1          0         -1      )       (  0.0000000 )
                  (     0          1         -1      )       ( -0.5000000 )

 cart.    s(39) = ( -1.0000000  0.0000000  0.0000000 )    f =(  0.2500000 )
                  (  0.0000000  0.0000000 -1.0000000 )       ( -0.2500000 )
                  (  0.0000000  1.0000000  0.0000000 )       (  0.0000000 )


      isym = 40     inv.  90 deg rotation - cart. axis [1,0,0]   

 cryst.   s(40) = (    -1          1          0      )    f =( -0.5000000 )
                  (    -1          0          1      )       (  0.0000000 )
                  (    -1          0          0      )       (  0.0000000 )

 cart.    s(40) = ( -1.0000000  0.0000000  0.0000000 )    f =(  0.2500000 )
                  (  0.0000000  0.0000000  1.0000000 )       (  0.0000000 )
                  (  0.0000000 -1.0000000  0.0000000 )       ( -0.2500000 )


      isym = 41     inv. 120 deg rotation - cart. axis [-1,-1,-1]

 cryst.   s(41) = (     1          0         -1      )    f =( -0.5000000 )
                  (     1         -1          0      )       (  0.0000000 )
                  (     1          0          0      )       (  0.0000000 )

 cart.    s(41) = (  0.0000000 -1.0000000  0.0000000 )    f =(  0.2500000 )
                  (  0.0000000  0.0000000 -1.0000000 )       (  0.0000000 )
                  ( -1.0000000  0.0000000  0.0000000 )       ( -0.2500000 )


      isym = 42     inv. 120 deg rotation - cart. axis [-1,1,1]  

 cryst.   s(42) = (     0         -1          0      )
                  (     0          0         -1      )
                  (    -1          0          0      )

 cart.    s(42) = (  0.0000000  1.0000000  0.0000000 )
                  (  0.0000000  0.0000000 -1.0000000 )
                  (  1.0000000  0.0000000  0.0000000 )


      isym = 43     inv. 120 deg rotation - cart. axis [1,1,-1]  

 cryst.   s(43) = (    -1          0          1      )    f =(  0.0000000 )
                  (     0          0          1      )       (  0.0000000 )
                  (     0         -1          1      )       ( -0.5000000 )

 cart.    s(43) = (  0.0000000 -1.0000000  0.0000000 )    f =(  0.2500000 )
                  (  0.0000000  0.0000000  1.0000000 )       ( -0.2500000 )
                  (  1.0000000  0.0000000  0.0000000 )       (  0.0000000 )


      isym = 44     inv. 120 deg rotation - cart. axis [1,-1,1]  

 cryst.   s(44) = (     0          1          0      )    f =(  0.0000000 )
                  (    -1          1          0      )       ( -0.5000000 )
                  (     0          1         -1      )       (  0.0000000 )

 cart.    s(44) = (  0.0000000  1.0000000  0.0000000 )    f =(  0.0000000 )
                  (  0.0000000  0.0000000  1.0000000 )       ( -0.2500000 )
                  ( -1.0000000  0.0000000  0.0000000 )       ( -0.2500000 )


      isym = 45     inv. 120 deg rotation - cart. axis [1,1,1]   

 cryst.   s(45) = (     0          0          1      )    f =(  0.0000000 )
                  (     0         -1          1      )       (  0.0000000 )
                  (    -1          0          1      )       ( -0.5000000 )

 cart.    s(45) = (  0.0000000  0.0000000 -1.0000000 )    f =(  0.2500000 )
                  ( -1.0000000  0.0000000  0.0000000 )       ( -0.2500000 )
                  (  0.0000000 -1.0000000  0.0000000 )       (  0.0000000 )


      isym = 46     inv. 120 deg rotation - cart. axis [-1,1,-1] 

 cryst.   s(46) = (     1         -1          0      )    f =( -0.5000000 )
                  (     1          0          0      )       (  0.0000000 )
                  (     1          0         -1      )       (  0.0000000 )

 cart.    s(46) = (  0.0000000  0.0000000 -1.0000000 )    f =(  0.2500000 )
                  (  1.0000000  0.0000000  0.0000000 )       (  0.0000000 )
                  (  0.0000000  1.0000000  0.0000000 )       ( -0.2500000 )


      isym = 47     inv. 120 deg rotation - cart. axis [1,-1,-1] 

 cryst.   s(47) = (     0          0         -1      )
                  (    -1          0          0      )
                  (     0         -1          0      )

 cart.    s(47) = (  0.0000000  0.0000000  1.0000000 )
                  (  1.0000000  0.0000000  0.0000000 )
                  (  0.0000000 -1.0000000  0.0000000 )


      isym = 48     inv. 120 deg rotation - cart. axis [-1,-1,1] 

 cryst.   s(48) = (    -1          1          0      )    f =(  0.0000000 )
                  (     0          1         -1      )       ( -0.5000000 )
                  (     0          1          0      )       (  0.0000000 )

 cart.    s(48) = (  0.0000000  0.0000000  1.0000000 )    f =(  0.0000000 )
                  ( -1.0000000  0.0000000  0.0000000 )       ( -0.2500000 )
                  (  0.0000000  1.0000000  0.0000000 )       ( -0.2500000 )


   Cartesian axes

     site n.     atom                  positions (alat units)
         1           Si  tau(   1) = (   0.1250000  -0.1250000  -0.1250000  )
         2           Si  tau(   2) = (  -0.1250000   0.1250000   0.1250000  )

   Crystallographic axes

     site n.     atom                  positions (cryst. coord.)
         1           Si  tau(   1) = ( -0.1250000 -0.1250000 -0.1250000  )
         2           Si  tau(   2) = (  0.1250000  0.1250000  0.1250000  )

     number of k points=   110
                       cart. coord. in units 2pi/alat
        k(    1) = (  -0.0500000   0.0500000   0.0500000), wk =   0.0040000
        k(    2) = (  -0.1500000   0.1500000  -0.0500000), wk =   0.0120000
        k(    3) = (  -0.2500000   0.2500000  -0.1500000), wk =   0.0120000
        k(    4) = (  -0.3500000   0.3500000  -0.2500000), wk =   0.0120000
        k(    5) = (  -0.4500000   0.4500000  -0.3500000), wk =   0.0120000
        k(    6) = (   0.4500000  -0.4500000   0.5500000), wk =   0.0120000
        k(    7) = (   0.3500000  -0.3500000   0.4500000), wk =   0.0120000
        k(    8) = (   0.2500000  -0.2500000   0.3500000), wk =   0.0120000
        k(    9) = (   0.1500000  -0.1500000   0.2500000), wk =   0.0120000
        k(   10) = (   0.0500000  -0.0500000   0.1500000), wk =   0.0120000
        k(   11) = (  -0.0500000   0.2500000   0.0500000), wk =   0.0120000
        k(   12) = (  -0.1500000   0.3500000  -0.0500000), wk =   0.0240000
        k(   13) = (  -0.2500000   0.4500000  -0.1500000), wk =   0.0240000
        k(   14) = (  -0.3500000   0.5500000  -0.2500000), wk =   0.0240000
        k(   15) = (   0.5500000  -0.3500000   0.6500000), wk =   0.0240000
        k(   16) = (   0.4500000  -0.2500000   0.5500000), wk =   0.0240000
        k(   17) = (   0.3500000  -0.1500000   0.4500000), wk =   0.0240000
        k(   18) = (   0.2500000  -0.0500000   0.3500000), wk =   0.0240000
        k(   19) = (   0.1500000   0.0500000   0.2500000), wk =   0.0240000
        k(   20) = (  -0.0500000   0.4500000   0.0500000), wk =   0.0120000
        k(   21) = (  -0.1500000   0.5500000  -0.0500000), wk =   0.0240000
        k(   22) = (  -0.2500000   0.6500000  -0.1500000), wk =   0.0240000
        k(   23) = (   0.6500000  -0.2500000   0.7500000), wk =   0.0240000
        k(   24) = (   0.5500000  -0.1500000   0.6500000), wk =   0.0240000
        k(   25) = (   0.4500000  -0.0500000   0.5500000), wk =   0.0240000
        k(   26) = (   0.3500000   0.0500000   0.4500000), wk =   0.0240000
        k(   27) = (   0.2500000   0.1500000   0.3500000), wk =   0.0240000
        k(   28) = (  -0.0500000   0.6500000   0.0500000), wk =   0.0120000
        k(   29) = (  -0.1500000   0.7500000  -0.0500000), wk =   0.0240000
        k(   30) = (   0.7500000  -0.1500000   0.8500000), wk =   0.0240000
        k(   31) = (   0.6500000  -0.0500000   0.7500000), wk =   0.0240000
        k(   32) = (   0.5500000   0.0500000   0.6500000), wk =   0.0240000
        k(   33) = (   0.4500000   0.1500000   0.5500000), wk =   0.0240000
        k(   34) = (   0.3500000   0.2500000   0.4500000), wk =   0.0240000
        k(   35) = (  -0.0500000   0.8500000   0.0500000), wk =   0.0120000
        k(   36) = (   0.8500000  -0.0500000   0.9500000), wk =   0.0240000
        k(   37) = (   0.7500000   0.0500000   0.8500000), wk =   0.0240000
        k(   38) = (   0.6500000   0.1500000   0.7500000), wk =   0.0240000
        k(   39) = (   0.5500000   0.2500000   0.6500000), wk =   0.0240000
        k(   40) = (   0.4500000   0.3500000   0.5500000), wk =   0.0240000
        k(   41) = (  -0.0500000  -0.9500000   0.0500000), wk =   0.0120000
        k(   42) = (  -0.1500000  -0.8500000  -0.0500000), wk =   0.0240000
        k(   43) = (  -0.2500000  -0.7500000  -0.1500000), wk =   0.0240000
        k(   44) = (  -0.3500000  -0.6500000  -0.2500000), wk =   0.0240000
        k(   45) = (  -0.0500000  -0.7500000   0.0500000), wk =   0.0120000
        k(   46) = (  -0.1500000  -0.6500000  -0.0500000), wk =   0.0240000
        k(   47) = (  -0.2500000  -0.5500000  -0.1500000), wk =   0.0240000
        k(   48) = (  -0.0500000  -0.5500000   0.0500000), wk =   0.0120000
        k(   49) = (  -0.1500000  -0.4500000  -0.0500000), wk =   0.0240000
        k(   50) = (  -0.0500000  -0.3500000   0.0500000), wk =   0.0120000
        k(   51) = (  -0.1500000   0.1500000   0.1500000), wk =   0.0040000
        k(   52) = (  -0.2500000   0.2500000   0.0500000), wk =   0.0120000
        k(   53) = (  -0.3500000   0.3500000  -0.0500000), wk =   0.0120000
        k(   54) = (  -0.4500000   0.4500000  -0.1500000), wk =   0.0120000
        k(   55) = (   0.4500000  -0.4500000   0.7500000), wk =   0.0120000
        k(   56) = (   0.3500000  -0.3500000   0.6500000), wk =   0.0120000
        k(   57) = (   0.2500000  -0.2500000   0.5500000), wk =   0.0120000
        k(   58) = (   0.1500000  -0.1500000   0.4500000), wk =   0.0120000
        k(   59) = (  -0.1500000   0.3500000   0.1500000), wk =   0.0120000
        k(   60) = (  -0.2500000   0.4500000   0.0500000), wk =   0.0240000
        k(   61) = (  -0.3500000   0.5500000  -0.0500000), wk =   0.0240000
        k(   62) = (   0.5500000  -0.3500000   0.8500000), wk =   0.0240000
        k(   63) = (   0.4500000  -0.2500000   0.7500000), wk =   0.0240000
        k(   64) = (   0.3500000  -0.1500000   0.6500000), wk =   0.0240000
        k(   65) = (   0.2500000  -0.0500000   0.5500000), wk =   0.0240000
        k(   66) = (  -0.1500000   0.5500000   0.1500000), wk =   0.0120000
        k(   67) = (  -0.2500000   0.6500000   0.0500000), wk =   0.0240000
        k(   68) = (   0.6500000  -0.2500000   0.9500000), wk =   0.0240000
        k(   69) = (   0.5500000  -0.1500000   0.8500000), wk =   0.0240000
        k(   70) = (   0.4500000  -0.0500000   0.7500000), wk =   0.0240000
        k(   71) = (   0.3500000   0.0500000   0.6500000), wk =   0.0240000
        k(   72) = (  -0.1500000   0.7500000   0.1500000), wk =   0.0120000
        k(   73) = (   0.7500000  -0.1500000   1.0500000), wk =   0.0240000
        k(   74) = (   0.6500000  -0.0500000   0.9500000), wk =   0.0240000
        k(   75) = (   0.5500000   0.0500000   0.8500000), wk =   0.0240000
        k(   76) = (   0.4500000   0.1500000   0.7500000), wk =   0.0240000
        k(   77) = (  -0.1500000  -1.0500000   0.1500000), wk =   0.0120000
        k(   78) = (  -0.2500000  -0.9500000   0.0500000), wk =   0.0240000
        k(   79) = (  -0.3500000  -0.8500000  -0.0500000), wk =   0.0240000
        k(   80) = (  -0.1500000  -0.8500000   0.1500000), wk =   0.0120000
        k(   81) = (  -0.2500000  -0.7500000   0.0500000), wk =   0.0240000
        k(   82) = (  -0.1500000  -0.6500000   0.1500000), wk =   0.0120000
        k(   83) = (  -0.2500000   0.2500000   0.2500000), wk =   0.0040000
        k(   84) = (  -0.3500000   0.3500000   0.1500000), wk =   0.0120000
        k(   85) = (  -0.4500000   0.4500000   0.0500000), wk =   0.0120000
        k(   86) = (   0.4500000  -0.4500000   0.9500000), wk =   0.0120000
        k(   87) = (   0.3500000  -0.3500000   0.8500000), wk =   0.0120000
        k(   88) = (   0.2500000  -0.2500000   0.7500000), wk =   0.0120000
        k(   89) = (  -0.2500000   0.4500000   0.2500000), wk =   0.0120000
        k(   90) = (  -0.3500000   0.5500000   0.1500000), wk =   0.0240000
        k(   91) = (   0.5500000  -0.3500000   1.0500000), wk =   0.0240000
        k(   92) = (   0.4500000  -0.2500000   0.9500000), wk =   0.0240000
        k(   93) = (   0.3500000  -0.1500000   0.8500000), wk =   0.0240000
        k(   94) = (  -0.2500000   0.6500000   0.2500000), wk =   0.0120000
        k(   95) = (   0.6500000  -0.2500000   1.1500000), wk =   0.0240000
        k(   96) = (   0.5500000  -0.1500000   1.0500000), wk =   0.0240000
        k(   97) = (   0.4500000  -0.0500000   0.9500000), wk =   0.0240000
        k(   98) = (  -0.2500000  -1.1500000   0.2500000), wk =   0.0120000
        k(   99) = (  -0.3500000  -1.0500000   0.1500000), wk =   0.0240000
        k(  100) = (  -0.2500000  -0.9500000   0.2500000), wk =   0.0120000
        k(  101) = (  -0.3500000   0.3500000   0.3500000), wk =   0.0040000
        k(  102) = (  -0.4500000   0.4500000   0.2500000), wk =   0.0120000
        k(  103) = (   0.4500000  -0.4500000   1.1500000), wk =   0.0120000
        k(  104) = (   0.3500000  -0.3500000   1.0500000), wk =   0.0120000
        k(  105) = (  -0.3500000   0.5500000   0.3500000), wk =   0.0120000
        k(  106) = (   0.5500000  -0.3500000   1.2500000), wk =   0.0240000
        k(  107) = (   0.4500000  -0.2500000   1.1500000), wk =   0.0240000
        k(  108) = (  -0.3500000  -1.2500000   0.3500000), wk =   0.0120000
        k(  109) = (  -0.4500000   0.4500000   0.4500000), wk =   0.0040000
        k(  110) = (   0.4500000  -0.4500000   1.3500000), wk =   0.0120000

                       cryst. coord.
        k(    1) = (   0.0500000   0.0500000   0.0500000), wk =   0.0040000
        k(    2) = (   0.0500000   0.0500000   0.1500000), wk =   0.0120000
        k(    3) = (   0.0500000   0.0500000   0.2500000), wk =   0.0120000
        k(    4) = (   0.0500000   0.0500000   0.3500000), wk =   0.0120000
        k(    5) = (   0.0500000   0.0500000   0.4500000), wk =   0.0120000
        k(    6) = (   0.0500000   0.0500000  -0.4500000), wk =   0.0120000
        k(    7) = (   0.0500000   0.0500000  -0.3500000), wk =   0.0120000
        k(    8) = (   0.0500000   0.0500000  -0.2500000), wk =   0.0120000
        k(    9) = (   0.0500000   0.0500000  -0.1500000), wk =   0.0120000
        k(   10) = (   0.0500000   0.0500000  -0.0500000), wk =   0.0120000
        k(   11) = (   0.0500000   0.1500000   0.1500000), wk =   0.0120000
        k(   12) = (   0.0500000   0.1500000   0.2500000), wk =   0.0240000
        k(   13) = (   0.0500000   0.1500000   0.3500000), wk =   0.0240000
        k(   14) = (   0.0500000   0.1500000   0.4500000), wk =   0.0240000
        k(   15) = (   0.0500000   0.1500000  -0.4500000), wk =   0.0240000
        k(   16) = (   0.0500000   0.1500000  -0.3500000), wk =   0.0240000
        k(   17) = (   0.0500000   0.1500000  -0.2500000), wk =   0.0240000
        k(   18) = (   0.0500000   0.1500000  -0.1500000), wk =   0.0240000
        k(   19) = (   0.0500000   0.1500000  -0.0500000), wk =   0.0240000
        k(   20) = (   0.0500000   0.2500000   0.2500000), wk =   0.0120000
        k(   21) = (   0.0500000   0.2500000   0.3500000), wk =   0.0240000
        k(   22) = (   0.0500000   0.2500000   0.4500000), wk =   0.0240000
        k(   23) = (   0.0500000   0.2500000  -0.4500000), wk =   0.0240000
        k(   24) = (   0.0500000   0.2500000  -0.3500000), wk =   0.0240000
        k(   25) = (   0.0500000   0.2500000  -0.2500000), wk =   0.0240000
        k(   26) = (   0.0500000   0.2500000  -0.1500000), wk =   0.0240000
        k(   27) = (   0.0500000   0.2500000  -0.0500000), wk =   0.0240000
        k(   28) = (   0.0500000   0.3500000   0.3500000), wk =   0.0120000
        k(   29) = (   0.0500000   0.3500000   0.4500000), wk =   0.0240000
        k(   30) = (   0.0500000   0.3500000  -0.4500000), wk =   0.0240000
        k(   31) = (   0.0500000   0.3500000  -0.3500000), wk =   0.0240000
        k(   32) = (   0.0500000   0.3500000  -0.2500000), wk =   0.0240000
        k(   33) = (   0.0500000   0.3500000  -0.1500000), wk =   0.0240000
        k(   34) = (   0.0500000   0.3500000  -0.0500000), wk =   0.0240000
        k(   35) = (   0.0500000   0.4500000   0.4500000), wk =   0.0120000
        k(   36) = (   0.0500000   0.4500000  -0.4500000), wk =   0.0240000
        k(   37) = (   0.0500000   0.4500000  -0.3500000), wk =   0.0240000
        k(   38) = (   0.0500000   0.4500000  -0.2500000), wk =   0.0240000
        k(   39) = (   0.0500000   0.4500000  -0.1500000), wk =   0.0240000
        k(   40) = (   0.0500000   0.4500000  -0.0500000), wk =   0.0240000
        k(   41) = (   0.0500000  -0.4500000  -0.4500000), wk =   0.0120000
        k(   42) = (   0.0500000  -0.4500000  -0.3500000), wk =   0.0240000
        k(   43) = (   0.0500000  -0.4500000  -0.2500000), wk =   0.0240000
        k(   44) = (   0.0500000  -0.4500000  -0.1500000), wk =   0.0240000
        k(   45) = (   0.0500000  -0.3500000  -0.3500000), wk =   0.0120000
        k(   46) = (   0.0500000  -0.3500000  -0.2500000), wk =   0.0240000
        k(   47) = (   0.0500000  -0.3500000  -0.1500000), wk =   0.0240000
        k(   48) = (   0.0500000  -0.2500000  -0.2500000), wk =   0.0120000
        k(   49) = (   0.0500000  -0.2500000  -0.1500000), wk =   0.0240000
        k(   50) = (   0.0500000  -0.1500000  -0.1500000), wk =   0.0120000
        k(   51) = (   0.1500000   0.1500000   0.1500000), wk =   0.0040000
        k(   52) = (   0.1500000   0.1500000   0.2500000), wk =   0.0120000
        k(   53) = (   0.1500000   0.1500000   0.3500000), wk =   0.0120000
        k(   54) = (   0.1500000   0.1500000   0.4500000), wk =   0.0120000
        k(   55) = (   0.1500000   0.1500000  -0.4500000), wk =   0.0120000
        k(   56) = (   0.1500000   0.1500000  -0.3500000), wk =   0.0120000
        k(   57) = (   0.1500000   0.1500000  -0.2500000), wk =   0.0120000
        k(   58) = (   0.1500000   0.1500000  -0.1500000), wk =   0.0120000
        k(   59) = (   0.1500000   0.2500000   0.2500000), wk =   0.0120000
        k(   60) = (   0.1500000   0.2500000   0.3500000), wk =   0.0240000
        k(   61) = (   0.1500000   0.2500000   0.4500000), wk =   0.0240000
        k(   62) = (   0.1500000   0.2500000  -0.4500000), wk =   0.0240000
        k(   63) = (   0.1500000   0.2500000  -0.3500000), wk =   0.0240000
        k(   64) = (   0.1500000   0.2500000  -0.2500000), wk =   0.0240000
        k(   65) = (   0.1500000   0.2500000  -0.1500000), wk =   0.0240000
        k(   66) = (   0.1500000   0.3500000   0.3500000), wk =   0.0120000
        k(   67) = (   0.1500000   0.3500000   0.4500000), wk =   0.0240000
        k(   68) = (   0.1500000   0.3500000  -0.4500000), wk =   0.0240000
        k(   69) = (   0.1500000   0.3500000  -0.3500000), wk =   0.0240000
        k(   70) = (   0.1500000   0.3500000  -0.2500000), wk =   0.0240000
        k(   71) = (   0.1500000   0.3500000  -0.1500000), wk =   0.0240000
        k(   72) = (   0.1500000   0.4500000   0.4500000), wk =   0.0120000
        k(   73) = (   0.1500000   0.4500000  -0.4500000), wk =   0.0240000
        k(   74) = (   0.1500000   0.4500000  -0.3500000), wk =   0.0240000
        k(   75) = (   0.1500000   0.4500000  -0.2500000), wk =   0.0240000
        k(   76) = (   0.1500000   0.4500000  -0.1500000), wk =   0.0240000
        k(   77) = (   0.1500000  -0.4500000  -0.4500000), wk =   0.0120000
        k(   78) = (   0.1500000  -0.4500000  -0.3500000), wk =   0.0240000
        k(   79) = (   0.1500000  -0.4500000  -0.2500000), wk =   0.0240000
        k(   80) = (   0.1500000  -0.3500000  -0.3500000), wk =   0.0120000
        k(   81) = (   0.1500000  -0.3500000  -0.2500000), wk =   0.0240000
        k(   82) = (   0.1500000  -0.2500000  -0.2500000), wk =   0.0120000
        k(   83) = (   0.2500000   0.2500000   0.2500000), wk =   0.0040000
        k(   84) = (   0.2500000   0.2500000   0.3500000), wk =   0.0120000
        k(   85) = (   0.2500000   0.2500000   0.4500000), wk =   0.0120000
        k(   86) = (   0.2500000   0.2500000  -0.4500000), wk =   0.0120000
        k(   87) = (   0.2500000   0.2500000  -0.3500000), wk =   0.0120000
        k(   88) = (   0.2500000   0.2500000  -0.2500000), wk =   0.0120000
        k(   89) = (   0.2500000   0.3500000   0.3500000), wk =   0.0120000
        k(   90) = (   0.2500000   0.3500000   0.4500000), wk =   0.0240000
        k(   91) = (   0.2500000   0.3500000  -0.4500000), wk =   0.0240000
        k(   92) = (   0.2500000   0.3500000  -0.3500000), wk =   0.0240000
        k(   93) = (   0.2500000   0.3500000  -0.2500000), wk =   0.0240000
        k(   94) = (   0.2500000   0.4500000   0.4500000), wk =   0.0120000
        k(   95) = (   0.2500000   0.4500000  -0.4500000), wk =   0.0240000
        k(   96) = (   0.2500000   0.4500000  -0.3500000), wk =   0.0240000
        k(   97) = (   0.2500000   0.4500000  -0.2500000), wk =   0.0240000
        k(   98) = (   0.2500000  -0.4500000  -0.4500000), wk =   0.0120000
        k(   99) = (   0.2500000  -0.4500000  -0.3500000), wk =   0.0240000
        k(  100) = (   0.2500000  -0.3500000  -0.3500000), wk =   0.0120000
        k(  101) = (   0.3500000   0.3500000   0.3500000), wk =   0.0040000
        k(  102) = (   0.3500000   0.3500000   0.4500000), wk =   0.0120000
        k(  103) = (   0.3500000   0.3500000  -0.4500000), wk =   0.0120000
        k(  104) = (   0.3500000   0.3500000  -0.3500000), wk =   0.0120000
        k(  105) = (   0.3500000   0.4500000   0.4500000), wk =   0.0120000
        k(  106) = (   0.3500000   0.4500000  -0.4500000), wk =   0.0240000
        k(  107) = (   0.3500000   0.4500000  -0.3500000), wk =   0.0240000
        k(  108) = (   0.3500000  -0.4500000  -0.4500000), wk =   0.0120000
        k(  109) = (   0.4500000   0.4500000   0.4500000), wk =   0.0040000
        k(  110) = (   0.4500000   0.4500000  -0.4500000), wk =   0.0120000

     Dense  grid:     8873 G-vectors     FFT dimensions: (  30,  30,  30)

     Dynamical RAM for                 wfc:       0.14 MB

     Dynamical RAM for     wfc (w. buffer):       0.41 MB

     Dynamical RAM for           str. fact:       0.14 MB

     Dynamical RAM for           local pot:       0.00 MB

     Dynamical RAM for          nlocal pot:       0.27 MB

     Dynamical RAM for                qrad:       0.15 MB

     Dynamical RAM for          rho,v,vnew:       1.02 MB

     Dynamical RAM for               rhoin:       0.34 MB

     Dynamical RAM for            rho*nmix:       2.17 MB

     Dynamical RAM for           G-vectors:       0.58 MB

     Dynamical RAM for          h,s,v(r/c):       0.05 MB

     Dynamical RAM for          <psi|beta>:       0.00 MB

     Dynamical RAM for                 psi:       0.55 MB

     Dynamical RAM for                hpsi:       0.55 MB

     Dynamical RAM for      wfcinit/wfcrot:       0.62 MB

     Estimated static dynamical RAM per process >       4.21 MB

     Estimated max dynamical RAM per process >       7.52 MB

     Estimated total dynamical RAM >     344.67 MB

     Initial potential from superposition of free atoms

     starting charge    7.51826, renormalised to    8.00000
     Starting wfcs are   18 randomized atomic wfcs

     total cpu time spent up to now is        1.9 secs

     Self-consistent Calculation

     iteration #  1     ecut=    40.00 Ry     beta= 0.70
     Davidson diagonalization with overlap
     ethr =  1.00E-02,  avg # of iterations =  4.1

     Threshold (ethr) on eigenvalues was too large:
     Diagonalizing with lowered threshold

     Davidson diagonalization with overlap
     ethr =  5.10E-04,  avg # of iterations =  2.8

     total cpu time spent up to now is        3.5 secs

     total energy              =     -15.89127204 Ry
     estimated scf accuracy    <       0.04108812 Ry

     iteration #  2     ecut=    40.00 Ry     beta= 0.70
     Davidson diagonalization with overlap
     ethr =  5.14E-04,  avg # of iterations =  1.0

     total cpu time spent up to now is        3.9 secs

     total energy              =     -15.89235234 Ry
     estimated scf accuracy    <       0.00211233 Ry

     iteration #  3     ecut=    40.00 Ry     beta= 0.70
     Davidson diagonalization with overlap
     ethr =  2.64E-05,  avg # of iterations =  2.9

     total cpu time spent up to now is        4.5 secs

     total energy              =     -15.89239976 Ry
     estimated scf accuracy    <       0.00002543 Ry

     iteration #  4     ecut=    40.00 Ry     beta= 0.70
     Davidson diagonalization with overlap
     ethr =  3.18E-07,  avg # of iterations =  3.8

     total cpu time spent up to now is        5.4 secs

     total energy              =     -15.89240403 Ry
     estimated scf accuracy    <       0.00000009 Ry

     iteration #  5     ecut=    40.00 Ry     beta= 0.70
     Davidson diagonalization with overlap
     ethr =  1.11E-09,  avg # of iterations =  4.8

     total cpu time spent up to now is        6.5 secs

     total energy              =     -15.89240412 Ry
     estimated scf accuracy    <          2.2E-09 Ry

     iteration #  6     ecut=    40.00 Ry     beta= 0.70
     Davidson diagonalization with overlap
     ethr =  2.72E-11,  avg # of iterations =  3.5

     total cpu time spent up to now is        7.3 secs

     End of self-consistent calculation

          k =-0.0500 0.0500 0.0500 (  1115 PWs)   bands (ev):

    -5.8295   5.9303   6.2352   6.2352   8.9284   8.9503   8.9503   9.9869

     occupation numbers 
     1.0000   1.0000   1.0000   1.0000   0.0000   0.0000   0.0000   0.0000

          k =-0.1500 0.1500-0.0500 (  1130 PWs)   bands (ev):

    -5.6512   4.7782   5.6429   6.1614   9.0131   9.1177   9.3714  11.0463

     occupation numbers 
     1.0000   1.0000   1.0000   1.0000   0.0000   0.0000   0.0000   0.0000

          k =-0.2500 0.2500-0.1500 (  1122 PWs)   bands (ev):

    -5.2134   2.9175   5.2015   5.8061   8.6624   9.5814   9.9122  12.4617

     occupation numbers 
     1.0000   1.0000   1.0000   1.0000   0.0000   0.0000   0.0000   0.0000

          k =-0.3500 0.3500-0.2500 (  1118 PWs)   bands (ev):

    -4.5479   1.1416   4.9092   5.4334   8.3226   9.7514   9.9431  13.5806

     occupation numbers 
     1.0000   1.0000   1.0000   1.0000   0.0000   0.0000   0.0000   0.0000

          k =-0.4500 0.4500-0.3500 (  1126 PWs)   bands (ev):

    -3.7770  -0.2881   4.7855   5.1535   8.1120   9.7071   9.7074  14.0898

     occupation numbers 
     1.0000   1.0000   1.0000   1.0000   0.0000   0.0000   0.0000   0.0000

          k = 0.4500-0.4500 0.5500 (  1129 PWs)   bands (ev):

    -3.4420  -0.7901   4.8274   5.0055   8.0596   9.5572   9.7519  14.0510

     occupation numbers 
     1.0000   1.0000   1.0000   1.0000   0.0000   0.0000   0.0000   0.0000

          k = 0.3500-0.3500 0.4500 (  1124 PWs)   bands (ev):

    -4.0274   0.1280   5.0100   5.0204   8.1691   9.5759   9.9491  13.7994

     occupation numbers 
     1.0000   1.0000   1.0000   1.0000   0.0000   0.0000   0.0000   0.0000

          k = 0.2500-0.2500 0.3500 (  1118 PWs)   bands (ev):

    -4.7908   1.7077   5.1781   5.3425   8.4260   9.6166  10.1389  12.7207

     occupation numbers 
     1.0000   1.0000   1.0000   1.0000   0.0000   0.0000   0.0000   0.0000

          k = 0.1500-0.1500 0.2500 (  1125 PWs)   bands (ev):

    -5.3868   3.5473   5.5013   5.7432   8.7528   9.3522   9.9489  11.9067

     occupation numbers 
     1.0000   1.0000   1.0000   1.0000   0.0000   0.0000   0.0000   0.0000

          k = 0.0500-0.0500 0.1500 (  1118 PWs)   bands (ev):

    -5.7400   5.3754   5.9194   6.0596   8.7408   9.2182   9.3686  10.4964

     occupation numbers 
     1.0000   1.0000   1.0000   1.0000   0.0000   0.0000   0.0000   0.0000

          k =-0.0500 0.2500 0.0500 (  1132 PWs)   bands (ev):

    -5.5617   4.6849   5.4682   5.5875   8.4027   9.8039  10.0220  10.9761

     occupation numbers 
     1.0000   1.0000   1.0000   1.0000   0.0000   0.0000   0.0000   0.0000

          k =-0.1500 0.3500-0.0500 (  1126 PWs)   bands (ev):

    -5.2094   3.4213   4.6953   5.3952   8.4602  10.0071  10.6505  11.0682

     occupation numbers 
     1.0000   1.0000   1.0000   1.0000   0.0000   0.0000   0.0000   0.0000

          k =-0.2500 0.4500-0.1500 (  1116 PWs)   bands (ev):

    -4.6149   1.7308   4.2613   5.0182   8.6842   9.9308  10.8998  11.2791

     occupation numbers 
     1.0000   1.0000   1.0000   1.0000   0.0000   0.0000   0.0000   0.0000

          k =-0.3500 0.5500-0.2500 (  1121 PWs)   bands (ev):

    -3.8521   0.2033   3.9887   4.7275   8.6420   9.7165  10.7454  12.4845

     occupation numbers 
     1.0000   1.0000   1.0000   1.0000   0.0000   0.0000   0.0000   0.0000

          k = 0.5500-0.3500 0.6500 (  1122 PWs)   bands (ev):

    -3.2644  -0.6999   3.8061   4.6808   8.6541   9.5458  10.5692  14.1155

     occupation numbers 
     1.0000   1.0000   1.0000   1.0000   0.0000   0.0000   0.0000   0.0000

          k = 0.4500-0.2500 0.5500 (  1126 PWs)   bands (ev):

    -3.6037  -0.1995   3.7382   4.8791   8.8042   9.5447  10.5422  13.5660

     occupation numbers 
     1.0000   1.0000   1.0000   1.0000   0.0000   0.0000   0.0000   0.0000

          k = 0.3500-0.1500 0.4500 (  1118 PWs)   bands (ev):

    -4.3749   1.1930   3.8508   5.2471   9.0414   9.6477  10.6047  12.1484

     occupation numbers 
     1.0000   1.0000   1.0000   1.0000   0.0000   0.0000   0.0000   0.0000

          k = 0.2500-0.0500 0.3500 (  1123 PWs)   bands (ev):

    -5.0381   2.8309   4.2309   5.6675   9.1394   9.5828  10.4047  11.5362

     occupation numbers 
     1.0000   1.0000   1.0000   1.0000   0.0000   0.0000   0.0000   0.0000

          k = 0.1500 0.0500 0.2500 (  1132 PWs)   bands (ev):

    -5.4739   4.1098   5.1824   5.9025   8.8146   9.4378   9.8945  11.4778

     occupation numbers 
     1.0000   1.0000   1.0000   1.0000   0.0000   0.0000   0.0000   0.0000

          k =-0.0500 0.4500 0.0500 (  1114 PWs)   bands (ev):

    -4.9428   3.0956   4.5374   4.5659   7.6481   9.8285  11.4923  11.6109

     occupation numbers 
     1.0000   1.0000   1.0000   1.0000   0.0000   0.0000   0.0000   0.0000

          k =-0.1500 0.5500-0.0500 (  1115 PWs)   bands (ev):

    -4.4265   1.9771   3.8175   4.3178   7.7820   9.4041  11.6441  12.3661

     occupation numbers 
     1.0000   1.0000   1.0000   1.0000   0.0000   0.0000   0.0000   0.0000

          k =-0.2500 0.6500-0.1500 (  1115 PWs)   bands (ev):

    -3.7056   0.6431   3.1864   4.0829   8.0199  10.1387  11.3396  12.4203

     occupation numbers 
     1.0000   1.0000   1.0000   1.0000   0.0000   0.0000   0.0000   0.0000

          k = 0.6500-0.2500 0.7500 (  1124 PWs)   bands (ev):

    -2.9787  -0.4333   2.6928   4.1055   8.1367  10.9257  11.8414  12.2370

     occupation numbers 
     1.0000   1.0000   1.0000   1.0000   0.0000   0.0000   0.0000   0.0000

          k = 0.5500-0.1500 0.6500 (  1126 PWs)   bands (ev):

    -3.0025  -0.3932   2.4299   4.3657   8.4338  10.7095  12.0190  13.4438

     occupation numbers 
     1.0000   1.0000   1.0000   1.0000   0.0000   0.0000   0.0000   0.0000

          k = 0.4500-0.0500 0.5500 (  1121 PWs)   bands (ev):

    -3.7360   0.6698   2.5203   4.8011   8.9157  10.4740  11.7682  11.9760

     occupation numbers 
     1.0000   1.0000   1.0000   1.0000   0.0000   0.0000   0.0000   0.0000

          k = 0.3500 0.0500 0.4500 (  1117 PWs)   bands (ev):

    -4.4482   1.6703   3.3055   5.2846   9.3591   9.7595  11.0196  11.5320

     occupation numbers 
     1.0000   1.0000   1.0000   1.0000   0.0000   0.0000   0.0000   0.0000

          k = 0.2500 0.1500 0.3500 (  1114 PWs)   bands (ev):

    -4.9552   2.3072   4.7483   5.5303   8.8068   9.5603  10.3135  11.9919

     occupation numbers 
     1.0000   1.0000   1.0000   1.0000   0.0000   0.0000   0.0000   0.0000

          k =-0.0500 0.6500 0.0500 (  1115 PWs)   bands (ev):

    -3.9886   1.3585   3.7559   3.8769   7.0843   8.3848  13.2858  13.3456

     occupation numbers 
     1.0000   1.0000   1.0000   1.0000   0.0000   0.0000   0.0000   0.0000

          k =-0.1500 0.7500-0.0500 (  1120 PWs)   bands (ev):

    -3.3277   0.4057   3.1815   3.5975   7.3419   8.2743  13.2767  14.2202

     occupation numbers 
     1.0000   1.0000   1.0000   1.0000   0.0000   0.0000   0.0000   0.0000

          k = 0.7500-0.1500 0.8500 (  1124 PWs)   bands (ev):

    -2.5534  -0.5079   2.3206   3.6077   7.5472   9.5444  12.9263  14.1885

     occupation numbers 
     1.0000   1.0000   1.0000   1.0000   0.0000   0.0000   0.0000   0.0000

          k = 0.6500-0.0500 0.7500 (  1130 PWs)   bands (ev):

    -2.3056  -0.7517   1.7924   3.8584   7.8407  11.4179  12.5986  13.5935

     occupation numbers 
     1.0000   1.0000   1.0000   1.0000   0.0000   0.0000   0.0000   0.0000

          k = 0.5500 0.0500 0.6500 (  1124 PWs)   bands (ev):

    -2.9715  -0.1471   1.9713   4.3018   8.3525  11.3784  12.6106  12.7624

     occupation numbers 
     1.0000   1.0000   1.0000   1.0000   0.0000   0.0000   0.0000   0.0000

          k = 0.4500 0.1500 0.5500 (  1126 PWs)   bands (ev):

    -3.6881   0.2666   3.0443   4.8298   8.9255   9.9467  11.1853  12.6828

     occupation numbers 
     1.0000   1.0000   1.0000   1.0000   0.0000   0.0000   0.0000   0.0000

          k = 0.3500 0.2500 0.4500 (  1127 PWs)   bands (ev):

    -4.2319   0.6366   4.5020   5.1621   8.5606   9.5869  10.2208  12.9839

     occupation numbers 
     1.0000   1.0000   1.0000   1.0000   0.0000   0.0000   0.0000   0.0000

          k =-0.0500 0.8500 0.0500 (  1122 PWs)   bands (ev):

    -2.7284  -0.3815   3.3178   3.4800   6.8628   7.4175  15.1588  15.1752

     occupation numbers 
     1.0000   1.0000   1.0000   1.0000   0.0000   0.0000   0.0000   0.0000

          k = 0.8500-0.0500 0.9500 (  1128 PWs)   bands (ev):

    -1.9616  -1.1932   2.8900   3.3037   7.1938   7.7328  15.0336  15.8218

     occupation numbers 
     1.0000   1.0000   1.0000   1.0000   0.0000   0.0000   0.0000   0.0000

          k = 0.7500 0.0500 0.8500 (  1130 PWs)   bands (ev):

    -1.9671  -1.0917   2.1318   3.5169   7.4469   9.4291  13.7643  14.7095

     occupation numbers 
     1.0000   1.0000   1.0000   1.0000   0.0000   0.0000   0.0000   0.0000

          k = 0.6500 0.1500 0.7500 (  1121 PWs)   bands (ev):

    -2.5711  -0.6358   2.1288   3.9400   7.9418  11.3967  11.9434  13.0812

     occupation numbers 
     1.0000   1.0000   1.0000   1.0000   0.0000   0.0000   0.0000   0.0000

          k = 0.5500 0.2500 0.6500 (  1122 PWs)   bands (ev):

    -3.0913  -0.6279   3.0987   4.4920   8.5722  10.0427  11.2538  13.9815

     occupation numbers 
     1.0000   1.0000   1.0000   1.0000   0.0000   0.0000   0.0000   0.0000

          k = 0.4500 0.3500 0.5500 (  1123 PWs)   bands (ev):

    -3.5083  -0.5771   4.4055   4.9358   8.4114   9.4931  10.0389  14.1450

     occupation numbers 
     1.0000   1.0000   1.0000   1.0000   0.0000   0.0000   0.0000   0.0000

          k =-0.0500-0.9500 0.0500 (  1124 PWs)   bands (ev):

    -1.9984  -1.2118   3.2300   3.3997   6.8874   7.1525  16.0333  16.0960

     occupation numbers 
     1.0000   1.0000   1.0000   1.0000   0.0000   0.0000   0.0000   0.0000

          k =-0.1500-0.8500-0.0500 (  1119 PWs)   bands (ev):

    -2.6734  -0.4013   2.9881   3.4004   7.2353   7.9216  14.1423  15.1682

     occupation numbers 
     1.0000   1.0000   1.0000   1.0000   0.0000   0.0000   0.0000   0.0000

          k =-0.2500-0.7500-0.1500 (  1118 PWs)   bands (ev):

    -3.1522   0.0850   2.6866   3.7928   7.7425   9.7787  12.1136  13.2865

     occupation numbers 
     1.0000   1.0000   1.0000   1.0000   0.0000   0.0000   0.0000   0.0000

          k =-0.3500-0.6500-0.2500 (  1122 PWs)   bands (ev):

    -3.4245  -0.1536   3.3546   4.3625   8.4010  10.2703  11.4233  12.1086

     occupation numbers 
     1.0000   1.0000   1.0000   1.0000   0.0000   0.0000   0.0000   0.0000

          k =-0.0500-0.7500 0.0500 (  1114 PWs)   bands (ev):

    -3.3942   0.4804   3.4932   3.6398   6.9260   7.8330  14.2235  14.2444

     occupation numbers 
     1.0000   1.0000   1.0000   1.0000   0.0000   0.0000   0.0000   0.0000

          k =-0.1500-0.6500-0.0500 (  1119 PWs)   bands (ev):

    -3.9144   1.2048   3.4623   3.9018   7.5249   8.7738  12.4441  13.2810

     occupation numbers 
     1.0000   1.0000   1.0000   1.0000   0.0000   0.0000   0.0000   0.0000

          k =-0.2500-0.5500-0.1500 (  1118 PWs)   bands (ev):

    -4.1964   1.1826   3.7370   4.4958   8.3537  10.5976  10.6324  11.6257

     occupation numbers 
     1.0000   1.0000   1.0000   1.0000   0.0000   0.0000   0.0000   0.0000

          k =-0.0500-0.5500 0.0500 (  1108 PWs)   bands (ev):

    -4.5062   2.2362   4.1048   4.1877   7.3296   9.0626  12.3703  12.4669

     occupation numbers 
     1.0000   1.0000   1.0000   1.0000   0.0000   0.0000   0.0000   0.0000

          k =-0.1500-0.4500-0.0500 (  1117 PWs)   bands (ev):

    -4.8594   2.7141   4.2331   4.8321   8.1013  10.0944  10.9245  11.4850

     occupation numbers 
     1.0000   1.0000   1.0000   1.0000   0.0000   0.0000   0.0000   0.0000

          k =-0.0500-0.3500 0.0500 (  1125 PWs)   bands (ev):

    -5.2954   3.9179   5.0002   5.0437   8.0180  10.3957  10.7877  10.8453

     occupation numbers 
     1.0000   1.0000   1.0000   1.0000   0.0000   0.0000   0.0000   0.0000

          k =-0.1500 0.1500 0.1500 (  1131 PWs)   bands (ev):

    -5.5628   4.1951   5.8988   5.8988   8.7176   9.4379   9.4379  11.5105

     occupation numbers 
     1.0000   1.0000   1.0000   1.0000   0.0000   0.0000   0.0000   0.0000

          k =-0.2500 0.2500 0.0500 (  1124 PWs)   bands (ev):

    -5.2989   3.4695   4.7176   5.9761   9.2065   9.4538   9.7549  11.9495

     occupation numbers 
     1.0000   1.0000   1.0000   1.0000   0.0000   0.0000   0.0000   0.0000

          k =-0.3500 0.3500-0.0500 (  1120 PWs)   bands (ev):

    -4.7834   2.2403   3.7491   5.6458   9.2744   9.9611  10.2019  12.0825

     occupation numbers 
     1.0000   1.0000   1.0000   1.0000   0.0000   0.0000   0.0000   0.0000

          k =-0.4500 0.4500-0.1500 (  1120 PWs)   bands (ev):

    -4.0630   0.7004   3.4351   5.1922   8.8894  10.2515  10.3021  13.1434

     occupation numbers 
     1.0000   1.0000   1.0000   1.0000   0.0000   0.0000   0.0000   0.0000

          k = 0.4500-0.4500 0.7500 (  1125 PWs)   bands (ev):

    -3.3362  -0.4890   3.4303   4.8053   8.5512  10.1233  10.4615  14.5507

     occupation numbers 
     1.0000   1.0000   1.0000   1.0000   0.0000   0.0000   0.0000   0.0000

          k = 0.3500-0.3500 0.6500 (  1121 PWs)   bands (ev):

    -3.3300  -0.5005   3.6495   4.5675   8.3713  10.1407  10.7050  13.1235

     occupation numbers 
     1.0000   1.0000   1.0000   1.0000   0.0000   0.0000   0.0000   0.0000

          k = 0.2500-0.2500 0.5500 (  1119 PWs)   bands (ev):

    -4.0547   0.6819   4.0501   4.5161   8.3581  10.3093  11.0326  11.4874

     occupation numbers 
     1.0000   1.0000   1.0000   1.0000   0.0000   0.0000   0.0000   0.0000

          k = 0.1500-0.1500 0.4500 (  1118 PWs)   bands (ev):

    -4.7774   2.2774   4.5697   4.6640   8.2955  10.3180  10.7633  11.1909

     occupation numbers 
     1.0000   1.0000   1.0000   1.0000   0.0000   0.0000   0.0000   0.0000

          k =-0.1500 0.3500 0.1500 (  1120 PWs)   bands (ev):

    -5.1243   2.9060   5.0720   5.2234   8.6335   9.7070  10.5482  11.3943

     occupation numbers 
     1.0000   1.0000   1.0000   1.0000   0.0000   0.0000   0.0000   0.0000

          k =-0.2500 0.4500 0.0500 (  1115 PWs)   bands (ev):

    -4.6937   2.2021   3.7769   5.1258   8.8318  10.0399  10.7686  11.2908

     occupation numbers 
     1.0000   1.0000   1.0000   1.0000   0.0000   0.0000   0.0000   0.0000

          k =-0.3500 0.5500-0.0500 (  1119 PWs)   bands (ev):

    -4.0368   1.1210   2.9265   4.7068   9.4372   9.7264  10.8944  12.0394

     occupation numbers 
     1.0000   1.0000   1.0000   1.0000   0.0000   0.0000   0.0000   0.0000

          k = 0.5500-0.3500 0.8500 (  1126 PWs)   bands (ev):

    -3.2656  -0.1042   2.6898   4.2888   9.2370   9.6544  12.1556  12.3162

     occupation numbers 
     1.0000   1.0000   1.0000   1.0000   0.0000   0.0000   0.0000   0.0000

          k = 0.4500-0.2500 0.7500 (  1121 PWs)   bands (ev):

    -2.9148  -0.5912   2.7426   4.0794   8.8949   9.8664  12.2372  12.9679

     occupation numbers 
     1.0000   1.0000   1.0000   1.0000   0.0000   0.0000   0.0000   0.0000

          k = 0.3500-0.1500 0.6500 (  1124 PWs)   bands (ev):

    -3.5082   0.2563   2.9605   4.1714   8.7292  10.2237  11.1777  12.3246

     occupation numbers 
     1.0000   1.0000   1.0000   1.0000   0.0000   0.0000   0.0000   0.0000

          k = 0.2500-0.0500 0.5500 (  1118 PWs)   bands (ev):

    -4.2689   1.5737   3.3793   4.5199   8.5259  10.0379  10.6761  12.2255

     occupation numbers 
     1.0000   1.0000   1.0000   1.0000   0.0000   0.0000   0.0000   0.0000

          k =-0.1500 0.5500 0.1500 (  1120 PWs)   bands (ev):

    -4.3491   1.6467   3.9177   4.3036   7.9393   9.8640  11.3885  11.8663

     occupation numbers 
     1.0000   1.0000   1.0000   1.0000   0.0000   0.0000   0.0000   0.0000

          k =-0.2500 0.6500 0.0500 (  1116 PWs)   bands (ev):

    -3.7683   0.9284   3.0503   3.9574   8.2668   9.4674  11.3469  13.1977

     occupation numbers 
     1.0000   1.0000   1.0000   1.0000   0.0000   0.0000   0.0000   0.0000

          k = 0.6500-0.2500 0.9500 (  1118 PWs)   bands (ev):

    -3.0144   0.0296   2.4161   3.4865   8.9991   9.9418  10.9226  14.1342

     occupation numbers 
     1.0000   1.0000   1.0000   1.0000   0.0000   0.0000   0.0000   0.0000

          k = 0.5500-0.1500 0.8500 (  1124 PWs)   bands (ev):

    -2.4078  -0.6681   2.0983   3.3334   9.2476  10.3761  11.8133  13.1105

     occupation numbers 
     1.0000   1.0000   1.0000   1.0000   0.0000   0.0000   0.0000   0.0000

          k = 0.4500-0.0500 0.7500 (  1124 PWs)   bands (ev):

    -2.7891  -0.2353   2.0945   3.5736   9.6273  10.0886  11.1577  13.9091

     occupation numbers 
     1.0000   1.0000   1.0000   1.0000   0.0000   0.0000   0.0000   0.0000

          k = 0.3500 0.0500 0.6500 (  1122 PWs)   bands (ev):

    -3.5556   0.5804   2.6269   4.0694   9.1960  10.1309  10.4844  13.0765

     occupation numbers 
     1.0000   1.0000   1.0000   1.0000   0.0000   0.0000   0.0000   0.0000

          k =-0.1500 0.7500 0.1500 (  1120 PWs)   bands (ev):

    -3.2673   0.2930   2.9037   3.7754   7.3582   8.9013  13.2275  13.3361

     occupation numbers 
     1.0000   1.0000   1.0000   1.0000   0.0000   0.0000   0.0000   0.0000

          k = 0.7500-0.1500 1.0500 (  1116 PWs)   bands (ev):

    -2.5690  -0.4522   2.6228   3.1971   7.9396   8.7283  12.8888  15.1515

     occupation numbers 
     1.0000   1.0000   1.0000   1.0000   0.0000   0.0000   0.0000   0.0000

          k = 0.6500-0.0500 0.9500 (  1126 PWs)   bands (ev):

    -1.8271  -1.1379   2.2611   2.7790   8.7959   9.5745  12.4509  13.3471

     occupation numbers 
     1.0000   1.0000   1.0000   1.0000   0.0000   0.0000   0.0000   0.0000

          k = 0.5500 0.0500 0.8500 (  1126 PWs)   bands (ev):

    -2.1239  -0.8388   1.9240   3.1231   9.1640  11.0057  11.7760  12.2558

     occupation numbers 
     1.0000   1.0000   1.0000   1.0000   0.0000   0.0000   0.0000   0.0000

          k = 0.4500 0.1500 0.7500 (  1124 PWs)   bands (ev):

    -2.8221  -0.4148   2.3715   3.7447   9.4091   9.7515  11.9949  13.2214

     occupation numbers 
     1.0000   1.0000   1.0000   1.0000   0.0000   0.0000   0.0000   0.0000

          k =-0.1500-1.0500 0.1500 (  1126 PWs)   bands (ev):

    -1.9571  -1.1605   2.4658   3.5423   7.0814   8.4969  14.9214  15.1504

     occupation numbers 
     1.0000   1.0000   1.0000   1.0000   0.0000   0.0000   0.0000   0.0000

          k =-0.2500-0.9500 0.0500 (  1123 PWs)   bands (ev):

    -1.8977  -1.1642   2.5342   3.0436   7.8763   8.5771  13.7468  14.6647

     occupation numbers 
     1.0000   1.0000   1.0000   1.0000   0.0000   0.0000   0.0000   0.0000

          k =-0.3500-0.8500-0.0500 (  1119 PWs)   bands (ev):

    -2.4277  -0.5467   2.2984   3.0361   8.8641   9.6993  11.6401  14.2947

     occupation numbers 
     1.0000   1.0000   1.0000   1.0000   0.0000   0.0000   0.0000   0.0000

          k =-0.1500-0.8500 0.1500 (  1119 PWs)   bands (ev):

    -2.6299  -0.4365   2.6103   3.6204   7.1756   8.6304  14.1371  14.1834

     occupation numbers 
     1.0000   1.0000   1.0000   1.0000   0.0000   0.0000   0.0000   0.0000

          k =-0.2500-0.7500 0.0500 (  1118 PWs)   bands (ev):

    -3.1985   0.2526   2.7964   3.5050   8.0695   9.0266  12.0874  14.1884

     occupation numbers 
     1.0000   1.0000   1.0000   1.0000   0.0000   0.0000   0.0000   0.0000

          k =-0.1500-0.6500 0.1500 (  1117 PWs)   bands (ev):

    -3.8436   0.9902   3.3460   4.0047   7.6184   9.3143  12.2906  12.5789

     occupation numbers 
     1.0000   1.0000   1.0000   1.0000   0.0000   0.0000   0.0000   0.0000

          k =-0.2500 0.2500 0.2500 (  1116 PWs)   bands (ev):

    -5.0433   2.2976   5.5187   5.5187   8.3215   9.8157   9.8157  13.2479

     occupation numbers 
     1.0000   1.0000   1.0000   1.0000   0.0000   0.0000   0.0000   0.0000

          k =-0.3500 0.3500 0.1500 (  1118 PWs)   bands (ev):

    -4.7042   1.7283   4.3049   5.5738   8.8672   9.8441  10.0630  12.7318

     occupation numbers 
     1.0000   1.0000   1.0000   1.0000   0.0000   0.0000   0.0000   0.0000

          k =-0.4500 0.4500 0.0500 (  1121 PWs)   bands (ev):

    -4.1269   1.1557   2.8770   5.1925   8.9655  10.6419  10.8449  12.3708

     occupation numbers 
     1.0000   1.0000   1.0000   1.0000   0.0000   0.0000   0.0000   0.0000

          k = 0.4500-0.4500 0.9500 (  1119 PWs)   bands (ev):

    -3.3762   0.2442   2.1940   4.6892   8.4257  11.4952  11.6752  13.0007

     occupation numbers 
     1.0000   1.0000   1.0000   1.0000   0.0000   0.0000   0.0000   0.0000

          k = 0.3500-0.3500 0.8500 (  1124 PWs)   bands (ev):

    -2.7565  -0.5763   2.2298   4.2750   7.9687  11.7500  11.8952  12.8090

     occupation numbers 
     1.0000   1.0000   1.0000   1.0000   0.0000   0.0000   0.0000   0.0000

          k = 0.2500-0.2500 0.7500 (  1116 PWs)   bands (ev):

    -3.0707  -0.1773   2.6533   4.0359   7.7262  10.7076  12.0857  12.2525

     occupation numbers 
     1.0000   1.0000   1.0000   1.0000   0.0000   0.0000   0.0000   0.0000

          k =-0.2500 0.4500 0.2500 (  1116 PWs)   bands (ev):

    -4.4594   1.1683   4.7713   4.8333   8.5883   9.6873  10.5447  12.0452

     occupation numbers 
     1.0000   1.0000   1.0000   1.0000   0.0000   0.0000   0.0000   0.0000

          k =-0.3500 0.5500 0.1500 (  1123 PWs)   bands (ev):

    -3.9731   0.7050   3.4039   4.7166   9.0112   9.7385  11.3806  11.6304

     occupation numbers 
     1.0000   1.0000   1.0000   1.0000   0.0000   0.0000   0.0000   0.0000

          k = 0.5500-0.3500 1.0500 (  1123 PWs)   bands (ev):

    -3.2853   0.2102   2.2544   4.2104   9.1785  10.2499  11.4760  12.9236

     occupation numbers 
     1.0000   1.0000   1.0000   1.0000   0.0000   0.0000   0.0000   0.0000

          k = 0.4500-0.2500 0.9500 (  1120 PWs)   bands (ev):

    -2.5435  -0.5059   1.8745   3.7282   8.6397  11.2005  12.2950  12.8183

     occupation numbers 
     1.0000   1.0000   1.0000   1.0000   0.0000   0.0000   0.0000   0.0000

          k = 0.3500-0.1500 0.8500 (  1123 PWs)   bands (ev):

    -2.4673  -0.5996   2.1580   3.4584   8.2875  10.5463  11.7165  14.1887

     occupation numbers 
     1.0000   1.0000   1.0000   1.0000   0.0000   0.0000   0.0000   0.0000

          k =-0.2500 0.6500 0.2500 (  1119 PWs)   bands (ev):

    -3.5864   0.2399   3.3147   4.2463   8.0215  10.9672  11.2353  11.6027

     occupation numbers 
     1.0000   1.0000   1.0000   1.0000   0.0000   0.0000   0.0000   0.0000

          k = 0.6500-0.2500 1.1500 (  1120 PWs)   bands (ev):

    -2.9958  -0.1722   2.5261   3.7370   8.4708  10.6323  11.1015  13.2691

     occupation numbers 
     1.0000   1.0000   1.0000   1.0000   0.0000   0.0000   0.0000   0.0000

          k = 0.5500-0.1500 1.0500 (  1122 PWs)   bands (ev):

    -2.2700  -0.6831   2.0533   3.0091   9.8729  10.2703  11.0145  13.0165

     occupation numbers 
     1.0000   1.0000   1.0000   1.0000   0.0000   0.0000   0.0000   0.0000

          k = 0.4500-0.0500 0.9500 (  1126 PWs)   bands (ev):

    -1.7792  -1.1240   2.1177   2.6182   9.8338  10.5487  11.3360  12.1044

     occupation numbers 
     1.0000   1.0000   1.0000   1.0000   0.0000   0.0000   0.0000   0.0000

          k =-0.2500-1.1500 0.2500 (  1126 PWs)   bands (ev):

    -2.5422  -0.5901   2.1489   3.8922   7.5163  10.5035  12.9697  13.0205

     occupation numbers 
     1.0000   1.0000   1.0000   1.0000   0.0000   0.0000   0.0000   0.0000

          k =-0.3500-1.0500 0.1500 (  1123 PWs)   bands (ev):

    -2.0184  -0.9825   1.9452   3.3261   8.1934  10.4592  12.5006  13.4429

     occupation numbers 
     1.0000   1.0000   1.0000   1.0000   0.0000   0.0000   0.0000   0.0000

          k =-0.2500-0.9500 0.2500 (  1131 PWs)   bands (ev):

    -2.1059  -0.9514   1.8757   3.8195   7.4084  10.4017  13.6738  13.9673

     occupation numbers 
     1.0000   1.0000   1.0000   1.0000   0.0000   0.0000   0.0000   0.0000

          k =-0.3500 0.3500 0.3500 (  1131 PWs)   bands (ev):

    -4.3193   0.5970   5.2376   5.2376   8.0074   9.7772   9.7772  14.1238

     occupation numbers 
     1.0000   1.0000   1.0000   1.0000   0.0000   0.0000   0.0000   0.0000

          k =-0.4500 0.4500 0.2500 (  1127 PWs)   bands (ev):

    -3.9415   0.1735   4.1432   5.1833   8.5925   9.8390   9.9438  13.9241

     occupation numbers 
     1.0000   1.0000   1.0000   1.0000   0.0000   0.0000   0.0000   0.0000

          k = 0.4500-0.4500 1.1500 (  1126 PWs)   bands (ev):

    -3.3562  -0.1055   2.7101   4.7299   8.4842  10.8915  10.9915  13.8311

     occupation numbers 
     1.0000   1.0000   1.0000   1.0000   0.0000   0.0000   0.0000   0.0000

          k = 0.3500-0.3500 1.0500 (  1130 PWs)   bands (ev):

    -2.6354  -0.4710   1.8080   4.2130   7.8712  12.2687  12.5131  13.0924

     occupation numbers 
     1.0000   1.0000   1.0000   1.0000   0.0000   0.0000   0.0000   0.0000

          k =-0.3500 0.5500 0.3500 (  1123 PWs)   bands (ev):

    -3.6882  -0.2450   4.4050   4.7785   8.4535   9.5925  10.2630  13.4276

     occupation numbers 
     1.0000   1.0000   1.0000   1.0000   0.0000   0.0000   0.0000   0.0000

          k = 0.5500-0.3500 1.2500 (  1122 PWs)   bands (ev):

    -3.2462  -0.4619   3.2735   4.4481   9.0537   9.4014  11.3508  13.2246

     occupation numbers 
     1.0000   1.0000   1.0000   1.0000   0.0000   0.0000   0.0000   0.0000

          k = 0.4500-0.2500 1.1500 (  1122 PWs)   bands (ev):

    -2.6678  -0.5819   2.2222   3.8415   8.7280  10.5171  12.7271  13.1195

     occupation numbers 
     1.0000   1.0000   1.0000   1.0000   0.0000   0.0000   0.0000   0.0000

          k =-0.3500-1.2500 0.3500 (  1125 PWs)   bands (ev):

    -2.9999  -0.6134   2.8907   4.3956   8.1508  10.9347  11.2579  12.9027

     occupation numbers 
     1.0000   1.0000   1.0000   1.0000   0.0000   0.0000   0.0000   0.0000

          k =-0.4500 0.4500 0.4500 (  1131 PWs)   bands (ev):

    -3.5966  -0.6261   5.0936   5.0936   7.8425   9.6393   9.6393  13.9482

     occupation numbers 
     1.0000   1.0000   1.0000   1.0000   0.0000   0.0000   0.0000   0.0000

          k = 0.4500-0.4500 1.3500 (  1124 PWs)   bands (ev):

    -3.3535  -0.7416   4.1849   4.9030   8.4466   9.6250  10.0342  14.3728

     occupation numbers 
     1.0000   1.0000   1.0000   1.0000   0.0000   0.0000   0.0000   0.0000

     highest occupied, lowest unoccupied level (ev):     6.2352    6.8628

!    total energy              =     -15.89240412 Ry
     estimated scf accuracy    <          2.9E-11 Ry

     The total energy is the sum of the following terms:
     one-electron contribution =       4.81703299 Ry
     hartree contribution      =       1.07068765 Ry
     xc contribution           =      -4.82141284 Ry
     ewald contribution        =     -16.95871192 Ry

     convergence has been achieved in   6 iterations

     Forces acting on atoms (cartesian axes, Ry/au):

     atom    1 type  1   force =     0.00000000    0.00000000   -0.00000000
     atom    2 type  1   force =    -0.00000000   -0.00000000    0.00000000
     The non-local contrib.  to forces
     atom    1 type  1   force =    -0.00000000   -0.00000000    0.00000000
     atom    2 type  1   force =    -0.00000000    0.00000000   -0.00000000
     The ionic contribution  to forces
     atom    1 type  1   force =     0.00000000    0.00000000    0.00000000
     atom    2 type  1   force =    -0.00000000    0.00000000   -0.00000000
     The local contribution  to forces
     atom    1 type  1   force =     0.00000000   -0.00000000   -0.00000000
     atom    2 type  1   force =     0.00000000    0.00000000    0.00000000
     The core correction contribution to forces
     atom    1 type  1   force =     0.00000000    0.00000000    0.00000000
     atom    2 type  1   force =     0.00000000    0.00000000    0.00000000
     The Hubbard contrib.    to forces
     atom    1 type  1   force =     0.00000000    0.00000000    0.00000000
     atom    2 type  1   force =     0.00000000    0.00000000    0.00000000
     The SCF correction term to forces
     atom    1 type  1   force =     0.00000000    0.00000000    0.00000000
     atom    2 type  1   force =    -0.00000000    0.00000000    0.00000000

     Total force =     0.000000     Total SCF correction =     0.000000


     Computing stress (Cartesian axis) and pressure

          total   stress  (Ry/bohr**3)                   (kbar)     P=        0.02
   0.00000013   0.00000000   0.00000000            0.02        0.00        0.00
   0.00000000   0.00000013   0.00000000            0.00        0.02        0.00
   0.00000000   0.00000000   0.00000013            0.00        0.00        0.02

     kinetic stress (kbar)   2284.90     -0.00     -0.00
                               -0.00   2284.90      0.00
                               -0.00      0.00   2284.90

     local   stress (kbar)   1943.57      0.00     -0.00
                                0.00   1943.57     -0.00
                               -0.00     -0.00   1943.57

     nonloc. stress (kbar)   -439.90     -0.00      0.00
                               -0.00   -439.90      0.00
                               -0.00     -0.00   -439.90

     hartree stress (kbar)    199.97     -0.00     -0.00
                               -0.00    199.97      0.00
                               -0.00      0.00    199.97

     exc-cor stress (kbar)   -821.17      0.00      0.00
                                0.00   -821.17      0.00
                                0.00      0.00   -821.17

     corecor stress (kbar)      0.00      0.00      0.00
                                0.00      0.00      0.00
                                0.00      0.00      0.00

     ewald   stress (kbar)  -3167.35     -0.00     -0.00
                               -0.00  -3167.35      0.00
                               -0.00      0.00  -3167.35

     hubbard stress (kbar)      0.00      0.00      0.00
                                0.00      0.00      0.00
                                0.00      0.00      0.00

     DFT-D   stress (kbar)      0.00      0.00      0.00
                                0.00      0.00      0.00
                                0.00      0.00      0.00

     XDM     stress (kbar)      0.00      0.00      0.00
                                0.00      0.00      0.00
                                0.00      0.00      0.00

     dft-nl  stress (kbar)      0.00      0.00      0.00
                                0.00      0.00      0.00
                                0.00      0.00      0.00

     TS-vdW  stress (kbar)      0.00      0.00      0.00
                                0.00      0.00      0.00
                                0.00      0.00      0.00



     Writing output data file ./Si.save/
 
     init_run     :      3.91s CPU      1.61s WALL (       1 calls)
     electrons    :     20.83s CPU      5.42s WALL (       1 calls)
     forces       :      0.07s CPU      0.02s WALL (       1 calls)
     stress       :      0.17s CPU      0.05s WALL (       1 calls)

     Called by init_run:
     wfcinit      :      2.47s CPU      0.81s WALL (       1 calls)
     wfcinit:atom :      0.02s CPU      0.01s WALL (       2 calls)
     wfcinit:wfcr :      2.36s CPU      0.78s WALL (       2 calls)
     potinit      :      0.09s CPU      0.03s WALL (       1 calls)
     hinit0       :      1.32s CPU      0.71s WALL (       1 calls)

     Called by electrons:
     c_bands      :     17.49s CPU      4.53s WALL (       7 calls)
     sum_band     :      2.79s CPU      0.71s WALL (       7 calls)
     v_of_rho     :      0.18s CPU      0.05s WALL (       7 calls)
     v_h          :      0.04s CPU      0.01s WALL (       7 calls)
     v_xc         :      0.15s CPU      0.04s WALL (       7 calls)
     mix_rho      :      0.08s CPU      0.03s WALL (       7 calls)

     Called by c_bands:
     init_us_2    :      0.13s CPU      0.04s WALL (      34 calls)
     cegterg      :     12.39s CPU      3.14s WALL (      14 calls)

     Called by sum_band:
     sum_band:wei :      0.01s CPU      0.00s WALL (       7 calls)
     sum_band:loo :      2.28s CPU      0.58s WALL (       7 calls)
     sum_band:buf :      0.03s CPU      0.00s WALL (      14 calls)
     sum_band:ini :      0.06s CPU      0.02s WALL (      14 calls)

     Called by *egterg:
     cdiaghg      :      0.72s CPU      0.24s WALL (      44 calls)
     cegterg:over :      0.08s CPU      0.03s WALL (      32 calls)
     cegterg:upda :      0.02s CPU      0.02s WALL (      32 calls)
     cegterg:last :      0.01s CPU      0.00s WALL (      14 calls)
     h_psi        :     13.76s CPU      3.59s WALL (      48 calls)
     g_psi        :      0.03s CPU      0.00s WALL (      32 calls)

     Called by h_psi:
     h_psi:calbec :      0.15s CPU      0.10s WALL (      48 calls)
     vloc_psi     :     13.52s CPU      3.44s WALL (      48 calls)
     add_vuspsi   :      0.08s CPU      0.05s WALL (      48 calls)

     General routines
     calbec       :      0.16s CPU      0.10s WALL (      58 calls)
     fft          :      0.62s CPU      0.50s WALL (      26 calls)
     ffts         :      0.02s CPU      0.01s WALL (       7 calls)
     fftw         :     15.29s CPU      3.89s WALL (     782 calls)
 
     Parallel routines
 
     PWSCF        :     26.42s CPU      9.33s WALL

 
   This run was terminated on:   9: 9: 4   9Jun2022            

=------------------------------------------------------------------------------=
   JOB DONE.
=------------------------------------------------------------------------------=
