
     Program PWSCF v.6.4.1 starts on  1Jul2020 at  2:39:55 

     This program is part of the open-source Quantum ESPRESSO suite
     for quantum simulation of materials; please cite
         "P. Giannozzi et al., J. Phys.:Condens. Matter 21 395502 (2009);
         "P. Giannozzi et al., J. Phys.:Condens. Matter 29 465901 (2017);
          URL http://www.quantum-espresso.org", 
     in publications or presentations arising from this work. More details at
     http://www.quantum-espresso.org/quote

     Parallel version (MPI), running on     6 processors

     MPI processes distributed on     1 nodes
     K-points division:     npool     =       6
     Waiting for input...
     Reading input from standard input
     Message from routine read_cards :
     DEPRECATED: no units specified in CELL_PARAMETERS card
Warning: card &IONS ignored
Warning: card / ignored
Warning: card &CELL ignored
Warning: card / ignored

     Current dimensions of program PWSCF are:
     Max number of different atomic species (ntypx) = 10
     Max number of k-points (npk) =  40000
     Max angular momentum in pseudopotentials (lmaxx) =  3

     Atomic positions and unit cell read from directory:
     ./BN.save/
 
     Message from routine readpp:
     file ./BN.save/b.cpi.UPF not found
     Message from routine readpp:
     file ./BN.save/n.cpi.UPF not found
               file b.cpi.UPF: wavefunction(s)  3d 4f renormalized
               file n.cpi.UPF: wavefunction(s)  3d 4f renormalized

     Subspace diagonalization in iterative solution of the eigenvalue problem:
     a serial algorithm will be used

     Message from routine setup:
     DEPRECATED: symmetry with ibrav=0, use correct ibrav instead
 
     G-vector sticks info
     --------------------
     sticks:   dense  smooth     PW     G-vecs:    dense   smooth      PW
     Sum         433     433    151                58197    58197   11607
 


     bravais-lattice index     =            0
     lattice parameter (alat)  =       4.7319  a.u.
     unit-cell volume          =     734.0406 (a.u.)^3
     number of atoms/cell      =            2
     number of atomic types    =            2
     number of electrons       =         8.00
     number of Kohn-Sham states=         4010
     kinetic-energy cutoff     =      70.0000  Ry
     charge density cutoff     =     280.0000  Ry
     Exchange-correlation      = SLA  PZ   NOGX NOGC ( 1  1  0  0 0 0)

     celldm(1)=   4.731874  celldm(2)=   0.000000  celldm(3)=   0.000000
     celldm(4)=   0.000000  celldm(5)=   0.000000  celldm(6)=   0.000000

     crystal axes: (cart. coord. in units of alat)
               a(1) = (   1.000000   0.000000   0.000000 )  
               a(2) = (  -0.500000   0.866025   0.000000 )  
               a(3) = (   0.000000   0.000000   8.000000 )  

     reciprocal axes: (cart. coord. in units 2 pi/alat)
               b(1) = (  1.000000  0.577350  0.000000 )  
               b(2) = (  0.000000  1.154701  0.000000 )  
               b(3) = (  0.000000  0.000000  0.125000 )  


     PseudoPot. # 1 for B  read from file:
     ./b.cpi.UPF
     MD5 check sum: aadced629ac320abbac2d4088521b25e
     Pseudo is Norm-conserving + core correction, Zval =  3.0
     Generated by new atomic code, or converted to UPF format
     Using radial grid of  453 points,  3 beta functions with: 
                l(1) =   0
                l(2) =   1
                l(3) =   2

     PseudoPot. # 2 for N  read from file:
     ./n.cpi.UPF
     MD5 check sum: ff6dad263d6aed986b71703111ab3f52
     Pseudo is Norm-conserving, Zval =  5.0
     Generated by new atomic code, or converted to UPF format
     Using radial grid of  467 points,  3 beta functions with: 
                l(1) =   0
                l(2) =   1
                l(3) =   2

     atomic species   valence    mass     pseudopotential
        B              3.00    10.81100     B ( 1.00)
        N              5.00    14.00700     N ( 1.00)

     12 Sym. Ops. (no inversion) found


                                    s                        frac. trans.

      isym =  1     identity                                     

 cryst.   s( 1) = (     1          0          0      )
                  (     0          1          0      )
                  (     0          0          1      )

 cart.    s( 1) = (  1.0000000  0.0000000  0.0000000 )
                  (  0.0000000  1.0000000  0.0000000 )
                  (  0.0000000  0.0000000  1.0000000 )


      isym =  2     180 deg rotation - cart. axis [0,1,0]        

 cryst.   s( 2) = (    -1          0          0      )
                  (     1          1          0      )
                  (     0          0         -1      )

 cart.    s( 2) = ( -1.0000000  0.0000000  0.0000000 )
                  (  0.0000000  1.0000000  0.0000000 )
                  (  0.0000000  0.0000000 -1.0000000 )


      isym =  3     120 deg rotation - cryst. axis [0,0,1]       

 cryst.   s( 3) = (     0          1          0      )
                  (    -1         -1          0      )
                  (     0          0          1      )

 cart.    s( 3) = ( -0.5000000 -0.8660254  0.0000000 )
                  (  0.8660254 -0.5000000  0.0000000 )
                  (  0.0000000  0.0000000  1.0000000 )


      isym =  4     120 deg rotation - cryst. axis [0,0,-1]      

 cryst.   s( 4) = (    -1         -1          0      )
                  (     1          0          0      )
                  (     0          0          1      )

 cart.    s( 4) = ( -0.5000000  0.8660254  0.0000000 )
                  ( -0.8660254 -0.5000000  0.0000000 )
                  (  0.0000000  0.0000000  1.0000000 )


      isym =  5     180 deg rotation - cryst. axis [1,-1,0]      

 cryst.   s( 5) = (     0         -1          0      )
                  (    -1          0          0      )
                  (     0          0         -1      )

 cart.    s( 5) = (  0.5000000 -0.8660254  0.0000000 )
                  ( -0.8660254 -0.5000000  0.0000000 )
                  (  0.0000000  0.0000000 -1.0000000 )


      isym =  6     180 deg rotation - cryst. axis [2,1,0]       

 cryst.   s( 6) = (     1          1          0      )
                  (     0         -1          0      )
                  (     0          0         -1      )

 cart.    s( 6) = (  0.5000000  0.8660254  0.0000000 )
                  (  0.8660254 -0.5000000  0.0000000 )
                  (  0.0000000  0.0000000 -1.0000000 )


      isym =  7     inv. 180 deg rotation - cart. axis [0,0,1]   

 cryst.   s( 7) = (     1          0          0      )
                  (     0          1          0      )
                  (     0          0         -1      )

 cart.    s( 7) = (  1.0000000  0.0000000  0.0000000 )
                  (  0.0000000  1.0000000  0.0000000 )
                  (  0.0000000  0.0000000 -1.0000000 )


      isym =  8     inv. 180 deg rotation - cart. axis [1,0,0]   

 cryst.   s( 8) = (    -1          0          0      )
                  (     1          1          0      )
                  (     0          0          1      )

 cart.    s( 8) = ( -1.0000000  0.0000000  0.0000000 )
                  (  0.0000000  1.0000000  0.0000000 )
                  (  0.0000000  0.0000000  1.0000000 )


      isym =  9     inv.  60 deg rotation - cryst. axis [0,0,1]  

 cryst.   s( 9) = (    -1         -1          0      )
                  (     1          0          0      )
                  (     0          0         -1      )

 cart.    s( 9) = ( -0.5000000  0.8660254  0.0000000 )
                  ( -0.8660254 -0.5000000  0.0000000 )
                  (  0.0000000  0.0000000 -1.0000000 )


      isym = 10     inv.  60 deg rotation - cryst. axis [0,0,-1] 

 cryst.   s(10) = (     0          1          0      )
                  (    -1         -1          0      )
                  (     0          0         -1      )

 cart.    s(10) = ( -0.5000000 -0.8660254  0.0000000 )
                  (  0.8660254 -0.5000000  0.0000000 )
                  (  0.0000000  0.0000000 -1.0000000 )


      isym = 11     inv. 180 deg rotation - cryst. axis [0,1,0]  

 cryst.   s(11) = (     1          1          0      )
                  (     0         -1          0      )
                  (     0          0          1      )

 cart.    s(11) = (  0.5000000  0.8660254  0.0000000 )
                  (  0.8660254 -0.5000000  0.0000000 )
                  (  0.0000000  0.0000000  1.0000000 )


      isym = 12     inv. 180 deg rotation - cryst. axis [1,1,0]  

 cryst.   s(12) = (     0         -1          0      )
                  (    -1          0          0      )
                  (     0          0          1      )

 cart.    s(12) = (  0.5000000 -0.8660254  0.0000000 )
                  ( -0.8660254 -0.5000000  0.0000000 )
                  (  0.0000000  0.0000000  1.0000000 )


   Cartesian axes

     site n.     atom                  positions (alat units)
         1           B   tau(   1) = (  -0.0000000   0.5773503   4.0000000  )
         2           N   tau(   2) = (   0.5000000   0.2886751   4.0000000  )

   Crystallographic axes

     site n.     atom                  positions (cryst. coord.)
         1           B   tau(   1) = (  0.3333333  0.6666667  0.5000000  )
         2           N   tau(   2) = (  0.6666667  0.3333333  0.5000000  )

     number of k points=    31
                       cart. coord. in units 2pi/alat
        k(    1) = (   0.0000000   0.0000000   0.0000000), wk =   0.0138889
        k(    2) = (   0.0000000   0.0962250   0.0000000), wk =   0.0416667
        k(    3) = (   0.0000000   0.1924501   0.0000000), wk =   0.0416667
        k(    4) = (   0.0000000   0.2886751   0.0000000), wk =   0.0416667
        k(    5) = (   0.0000000   0.3849002   0.0000000), wk =   0.0416667
        k(    6) = (   0.0000000   0.4811252   0.0000000), wk =   0.0416667
        k(    7) = (   0.0000000   0.5773503   0.0000000), wk =   0.0416667
        k(    8) = (   0.0000000   0.6735753   0.0000000), wk =   0.0416667
        k(    9) = (   0.0000000   0.7698004   0.0000000), wk =   0.0416667
        k(   10) = (   0.0000000   0.8660254   0.0000000), wk =   0.0416667
        k(   11) = (   0.0000000   0.9622504   0.0000000), wk =   0.0416667
        k(   12) = (   0.0000000   1.0584755   0.0000000), wk =   0.0416667
        k(   13) = (   0.0833333   0.1443376   0.0000000), wk =   0.0833333
        k(   14) = (   0.0833333   0.2405626   0.0000000), wk =   0.0833333
        k(   15) = (   0.0833333   0.3367877   0.0000000), wk =   0.0833333
        k(   16) = (   0.0833333   0.4330127   0.0000000), wk =   0.0833333
        k(   17) = (   0.0833333   0.5292377   0.0000000), wk =   0.0833333
        k(   18) = (   0.0833333   0.6254628   0.0000000), wk =   0.0833333
        k(   19) = (   0.0833333   0.7216878   0.0000000), wk =   0.0833333
        k(   20) = (   0.0833333   0.8179129   0.0000000), wk =   0.0833333
        k(   21) = (   0.0833333   0.9141379   0.0000000), wk =   0.0833333
        k(   22) = (   0.1666667   0.2886751   0.0000000), wk =   0.0833333
        k(   23) = (   0.1666667   0.3849002   0.0000000), wk =   0.0833333
        k(   24) = (   0.1666667   0.4811252   0.0000000), wk =   0.0833333
        k(   25) = (   0.1666667   0.5773503   0.0000000), wk =   0.0833333
        k(   26) = (   0.1666667   0.6735753   0.0000000), wk =   0.0833333
        k(   27) = (   0.1666667   0.7698004   0.0000000), wk =   0.0833333
        k(   28) = (   0.2500000   0.4330127   0.0000000), wk =   0.0833333
        k(   29) = (   0.2500000   0.5292377   0.0000000), wk =   0.0833333
        k(   30) = (   0.2500000   0.6254628   0.0000000), wk =   0.0833333
        k(   31) = (   0.3333333   0.5773503   0.0000000), wk =   0.0277778

                       cryst. coord.
        k(    1) = (   0.0000000   0.0000000   0.0000000), wk =   0.0138889
        k(    2) = (   0.0000000   0.0833333   0.0000000), wk =   0.0416667
        k(    3) = (   0.0000000   0.1666667   0.0000000), wk =   0.0416667
        k(    4) = (   0.0000000   0.2500000   0.0000000), wk =   0.0416667
        k(    5) = (   0.0000000   0.3333333   0.0000000), wk =   0.0416667
        k(    6) = (   0.0000000   0.4166667   0.0000000), wk =   0.0416667
        k(    7) = (   0.0000000   0.5000000   0.0000000), wk =   0.0416667
        k(    8) = (   0.0000000   0.5833333   0.0000000), wk =   0.0416667
        k(    9) = (   0.0000000   0.6666667   0.0000000), wk =   0.0416667
        k(   10) = (   0.0000000   0.7500000   0.0000000), wk =   0.0416667
        k(   11) = (   0.0000000   0.8333333   0.0000000), wk =   0.0416667
        k(   12) = (   0.0000000   0.9166667   0.0000000), wk =   0.0416667
        k(   13) = (   0.0833333   0.0833333   0.0000000), wk =   0.0833333
        k(   14) = (   0.0833333   0.1666667   0.0000000), wk =   0.0833333
        k(   15) = (   0.0833333   0.2500000   0.0000000), wk =   0.0833333
        k(   16) = (   0.0833333   0.3333333   0.0000000), wk =   0.0833333
        k(   17) = (   0.0833333   0.4166667   0.0000000), wk =   0.0833333
        k(   18) = (   0.0833333   0.5000000   0.0000000), wk =   0.0833333
        k(   19) = (   0.0833333   0.5833333   0.0000000), wk =   0.0833333
        k(   20) = (   0.0833333   0.6666667   0.0000000), wk =   0.0833333
        k(   21) = (   0.0833333   0.7500000   0.0000000), wk =   0.0833333
        k(   22) = (   0.1666667   0.1666667   0.0000000), wk =   0.0833333
        k(   23) = (   0.1666667   0.2500000   0.0000000), wk =   0.0833333
        k(   24) = (   0.1666667   0.3333333   0.0000000), wk =   0.0833333
        k(   25) = (   0.1666667   0.4166667   0.0000000), wk =   0.0833333
        k(   26) = (   0.1666667   0.5000000   0.0000000), wk =   0.0833333
        k(   27) = (   0.1666667   0.5833333   0.0000000), wk =   0.0833333
        k(   28) = (   0.2500000   0.2500000   0.0000000), wk =   0.0833333
        k(   29) = (   0.2500000   0.3333333   0.0000000), wk =   0.0833333
        k(   30) = (   0.2500000   0.4166667   0.0000000), wk =   0.0833333
        k(   31) = (   0.3333333   0.3333333   0.0000000), wk =   0.0277778

     Dense  grid:    58197 G-vectors     FFT dimensions: (  25,  25, 216)

     Dynamical RAM for                 wfc:     444.22 MB

     Dynamical RAM for     wfc (w. buffer):     444.22 MB

     Dynamical RAM for           str. fact:       1.78 MB

     Dynamical RAM for           local pot:       0.00 MB

     Dynamical RAM for          nlocal pot:       1.99 MB

     Dynamical RAM for                qrad:       0.58 MB

     Dynamical RAM for          rho,v,vnew:       5.75 MB

     Dynamical RAM for           G-vectors:       3.77 MB

     Dynamical RAM for          h,s,v(r/c):     736.09 MB

     Dynamical RAM for          <psi|beta>:       1.10 MB

     Dynamical RAM for      wfcinit/wfcrot:    1256.52 MB

     Estimated static dynamical RAM per process >     465.91 MB

     Estimated max dynamical RAM per process >       1.68 GB

     Estimated total dynamical RAM >      10.09 GB

     Check: negative core charge=   -0.000010

     The potential is recalculated from file :
     ./BN.save/charge-density

     Starting wfcs are   32 randomized atomic wfcs + 3978 random wfcs

     Band Structure Calculation
     CG style diagonalization

     Computing kpt #:     1
     c_bands:  3 eigenvalues not converged
     total cpu time spent up to now is    16363.3 secs

     Computing kpt #:     2
     c_bands: 15 eigenvalues not converged
     total cpu time spent up to now is    29182.6 secs

     Computing kpt #:     3
     c_bands: 15 eigenvalues not converged
     total cpu time spent up to now is    41781.9 secs

     Computing kpt #:     4
     c_bands:  3 eigenvalues not converged
     total cpu time spent up to now is    55217.9 secs

     Computing kpt #:     5
     c_bands: 24 eigenvalues not converged
     total cpu time spent up to now is    67982.0 secs

     Computing kpt #:     6
     c_bands:  7 eigenvalues not converged
     total cpu time spent up to now is    79920.8 secs

     ethr =  1.25E-12,  avg # of iterations = 60.5

     total cpu time spent up to now is    79920.8 secs

     End of band structure calculation

          k = 0.0000 0.0000 0.0000 (  7301 PWs)   bands (ev):

   -21.8163  -9.6697  -5.7512  -5.7512   0.3599   1.1535   1.1892   2.2498
     2.5433   4.2308   4.7863   6.8572   7.0937   7.0937   7.5381   8.9383
     9.7785  11.6179  12.6614  15.8733  17.0939  20.7349  20.8916  22.6031
    25.4455  25.4455  26.0447  28.3173  28.3173  28.7384  29.6290  31.4306
    31.4306  32.1926  32.1926  32.4985  32.7131  32.9266  33.1163  33.1163
    33.1597  33.1597  33.1980  33.2448  33.2961  33.2961  33.3893  33.3893
    33.4800  33.8238  34.1539  34.3153  34.3153  34.4925  34.4925  34.5752
    34.5752  34.5898  34.8043  34.8043  35.0092  35.2742  35.7702  35.9086
    36.4707  36.4707  36.7561  36.7561  36.7701  36.7701  37.0230  37.0918
    37.0918  37.2174  37.4503  38.7338  39.3402  39.3402  39.8373  39.8383
    39.8383  39.8475  39.8475  40.1399  40.2350  40.2350  40.7249  42.0157
    42.6209  42.7511  42.7511  43.3972  43.6990  43.6990  43.7631  43.7631
    44.1896  44.2105  44.2105  44.5434  44.7679  46.3760  46.3760  46.8923
    48.2789  48.3353  48.3353  48.4861  48.4861  48.7662  48.9786  48.9786
    49.5171  50.2907  50.2907  51.0080  51.9795  52.3190  53.7681  53.7681
    53.9731  53.9731  54.2607  54.4192  54.5028  54.5028  55.0747  55.2176
    55.2176  58.0310  59.0641  59.9469  59.9469  60.2401  60.2401  60.3672
    60.7929  60.7929  60.8505  61.2225  61.2225  61.7154  61.7501  65.0494
    66.6624  66.7751  66.7751  67.2713  67.2713  67.3402  67.8361  67.8361
    68.1092  68.1092  68.1800  69.0556  69.0556  70.4427  70.9813  72.8208
    74.5876  74.5876  74.7763  74.9104  75.0652  75.0652  75.6183  75.6183
    75.7781  75.8195  75.8495  75.8495  78.4404  79.2642  81.5312  82.5075
    82.5075  82.8996  83.5781  83.5881  83.5881  83.7214  84.0188  84.0188
    84.3379  84.3379  85.0188  86.5135  88.2273  88.2273  88.5582  88.5582
    90.5874  91.1363  91.1363  91.9063  92.3704  92.6878  92.9584  92.9584
    93.3915  93.3915  93.5307  93.7913  93.7913  93.9123  93.9123  94.5742
    94.6033  95.1178  95.1178  96.5354  96.5357  96.5357  96.7195  97.0703
    97.0703  97.1243  97.1852  97.1852  97.1902  97.2442  97.2442  97.2482
    97.3167  97.3167  97.3527  98.1427  98.1730  98.1730  98.4702  98.4702
    98.5867  98.5867  98.6223  98.6731  98.6731  98.7142  98.7499  99.7393
   100.1054 100.1054 100.5810 100.5810 100.6108 100.9084 100.9084 100.9107
   100.9107 100.9910 101.0285 101.0668 101.7493 102.2636 102.3251 102.3251
   102.9699 102.9699 103.2925 103.2925 103.3489 103.3489 103.5081 103.5081
   103.7516 104.0301 104.0301 104.0925 104.1150 104.1150 104.1470 104.1470
   104.1715 104.1791 104.3320 104.7699 104.7699 106.0065 106.3176 107.2360
   107.3206 107.5597 107.5597 107.9031 107.9031 107.9774 107.9774 108.0252
   108.0337 108.0337 108.1478 108.1523 108.5483 110.4098 111.6488 112.0952
   112.0952 112.1879 112.1879 112.7065 112.7065 112.7159 112.7159 112.8983
   112.9291 113.0939 113.7676 113.7676 113.9706 113.9706 114.1617 114.1661
   114.6524 114.6524 114.6539 114.6539 114.9242 116.9848 117.5860 117.5860
   117.7022 117.7022 118.1655 118.1655 118.2473 118.2473 118.4446 118.4636
   118.5695 118.9894 119.3747 119.8928 121.5879 121.5879 122.3613 122.5347
   122.5347 123.5311 123.5311 123.9894 124.4008 124.4685 124.4685 124.4899
   124.4899 124.6309 124.6309 124.7543 124.7717 124.8016 125.0185 125.2220
   125.2220 125.6400 125.6400 126.1062 126.3033 126.3033 126.3411 126.3411
   126.4374 127.7126 127.7126 128.2078 128.2078 128.4936 128.5468 129.0800
   129.0800 129.1180 129.1180 129.1613 129.1768 129.2096 129.2649 129.2649
   129.2664 129.2884 129.2884 129.9255 130.2285 130.2285 130.3758 130.3758
   130.4629 130.4629 130.4839 130.5461 130.5461 130.5698 130.6108 130.8677
   131.0046 131.0046 131.1947 131.1947 131.5882 131.5882 131.6353 131.6353
   131.8283 131.8284 131.8425 132.4639 132.5580 132.5580 132.7588 132.7701
   132.7701 132.8834 132.8834 132.9377 132.9553 132.9553 132.9678 133.0117
   133.0660 134.7152 135.4440 135.4440 135.7505 135.7505 135.9177 135.9177
   135.9675 135.9675 135.9747 136.1046 136.1282 136.2739 137.1552 137.2901
   137.6048 137.6048 137.7734 137.7734 137.9821 137.9821 138.1465 138.1465
   138.6521 139.0622 139.0622 139.1546 139.1546 139.2327 139.2327 139.2925
   139.3213 139.3213 139.5525 139.6631 139.6720 139.7126 139.7650 139.7650
   139.9782 139.9782 140.1091 140.1091 140.1262 140.1745 140.1745 140.2318
   140.2381 143.9664 143.9664 143.9989 144.4358 144.4358 144.5259 144.5259
   144.5467 144.6381 144.6381 144.7945 144.8596 145.7042 146.9790 146.9790
   147.3382 147.3382 147.3825 147.8856 147.9633 147.9633 148.0235 148.0235
   148.0784 148.0846 148.2488 148.2649 149.2195 149.2195 149.7907 149.7907
   149.9855 150.1708 150.1708 150.2728 150.2728 150.2924 150.3584 150.3856
   150.4146 151.0980 151.0980 151.1059 151.1059 151.6253 151.7160 151.7160
   151.7381 151.7381 151.9295 155.2674 155.2674 155.3273 155.9559 155.9559
   155.9734 155.9734 156.0428 156.1786 156.1786 156.4474 156.6609 157.0628
   157.0628 157.1144 157.2429 157.2429 157.3536 157.3536 157.4681 157.4681
   157.4948 157.5990 157.6039 160.9860 161.9118 161.9118 162.1691 162.5285
   163.0451 163.0451 163.3436 163.3436 163.4681 163.4681 163.5807 163.5868
   163.6920 163.7523 163.8406 164.8467 164.8467 164.9010 164.9010 165.1654
   165.1654 165.2539 165.3391 165.3391 165.7379 166.7498 166.7498 166.9799
   167.0956 167.0956 167.4118 167.4118 167.4790 167.4877 167.4877 167.6922
   167.7073 169.4417 169.4417 170.6101 171.0360 171.0360 171.2368 171.2368
   171.3829 171.3829 171.4555 171.4658 171.5570 174.4026 174.4026 175.0605
   176.9283 177.2447 177.3232 177.3232 177.3835 177.3835 177.9962 178.1594
   178.1594 178.2463 178.2463 178.5427 178.5582 178.8113 178.8358 178.9382
   178.9382 179.6621 179.6621 179.7517 179.7517 179.7842 179.9397 179.9397
   180.0397 180.1254 180.1254 180.1866 180.1999 180.4287 180.4287 180.4475
   180.4475 180.8277 180.8501 181.0732 181.0732 185.0565 185.0565 187.0962
   188.3629 188.3629 188.4041 188.4041 188.4450 188.5789 188.7993 188.7993
   189.1448 189.1448 189.2759 189.6003 189.8783 189.9051 189.9051 190.0150
   190.0150 190.1382 190.1602 190.1796 190.1796 190.3473 190.4025 190.4025
   192.3852 194.1749 194.1887 194.2731 194.4488 194.7176 194.7176 194.8224
   194.8224 195.5559 195.5559 195.5738 195.5738 196.7739 196.7845 198.0069
   198.0069 198.4227 198.8261 198.8490 198.8490 199.1151 199.1536 199.1536
   199.1537 199.1537 199.3608 199.7629 199.7629 200.2603 201.2235 201.7492
   201.7492 202.0577 202.1826 202.1826 202.1893 202.1893 202.2976 202.2976
   202.4856 202.5102 204.2905 204.2905 205.9677 206.6739 209.0932 209.0932
   209.4127 209.5649 209.5649 209.7229 210.0576 210.0576 210.0815 210.0815
   210.2963 210.3361 210.4323 210.6853 210.9926 211.1351 211.1351 211.1357
   211.1357 211.5343 211.5343 211.5694 211.5694 213.7622 213.9709 214.1529
   214.5265 214.5265 214.8357 214.8357 214.8894 215.1110 215.1158 215.1158
   215.3968 215.3968 215.5496 215.5496 215.6108 215.6288 216.6657 216.6657
   217.5363 219.0746 219.7337 219.7337 220.4019 220.4019 220.6198 220.9420
   220.9420 221.0384 221.5164 221.5164 221.6301 221.6614 221.6614 221.7933
   221.7933 221.8095 221.9516 223.3780 223.3780 223.6573 223.6573 223.7978
   223.9966 224.2642 224.2642 224.3668 224.5244 224.5244 224.6098 224.9178
   225.0233 225.0233 225.0298 225.0411 225.0411 225.0637 225.0918 225.0918
   225.1007 225.1445 225.1445 225.1527 225.1527 225.1847 225.1853 225.1853
   225.1967 225.2237 225.2778 225.2778 225.3040 225.3040 225.3273 225.3331
   226.1877 226.1877 226.2338 226.2935 226.2935 226.3252 226.3252 226.3585
   226.3930 226.4124 226.4278 226.4278 226.4329 226.4562 226.4562 226.5112
   226.5477 226.5800 226.5800 226.6422 226.6468 226.6468 226.7313 226.7313
   226.7691 226.8028 227.3845 227.5361 227.5361 227.6013 227.6013 227.8584
   227.8584 227.8795 227.8795 228.4119 228.4568 228.4568 228.5035 228.5035
   228.5825 228.5825 228.6052 228.6162 228.6162 228.6939 228.6987 228.7968
   228.7968 228.8187 228.8444 228.9055 228.9055 228.9141 228.9141 228.9881
   228.9881 229.0115 229.0631 229.2552 229.2552 229.2697 229.2697 229.2907
   229.2907 229.3093 229.3093 229.3379 229.3927 229.4981 229.5027 231.3084
   231.3430 231.3430 231.4535 231.4535 231.6193 231.6193 231.6543 231.6543
   231.6739 231.7878 231.8140 231.9526 231.9534 231.9608 231.9608 232.0749
   232.0749 232.0904 232.1520 232.1520 232.1899 232.1947 232.1947 232.2409
   232.2492 233.4510 233.6812 233.6812 233.7700 233.7700 234.0040 234.0906
   234.0906 234.1460 234.1460 234.2674 234.3484 235.3759 235.3759 235.4725
   235.5093 235.5093 235.5205 235.5205 235.5997 235.6133 235.6133 235.7213
   235.7261 235.8651 235.8834 235.8834 235.9569 236.0270 236.0270 236.1195
   236.1195 236.1768 236.1768 236.2235 236.2396 239.6861 239.7178 239.7178
   240.0445 240.0445 240.1222 240.1222 240.2503 240.2743 240.2743 240.4305
   240.4322 240.4557 240.5449 240.5449 240.6617 240.7540 240.7540 240.8527
   240.8527 240.9484 240.9484 240.9826 241.0209 241.4915 242.6734 242.7447
   242.7447 242.8894 242.8894 243.1529 243.7585 243.7585 243.7971 243.7971
   243.8617 244.0897 244.0904 244.7664 244.7664 244.9212 244.9212 245.3786
   245.5449 245.5449 245.6148 245.6148 245.6683 245.6923 245.6923 245.7144
   245.7144 245.9462 245.9527 246.0271 246.0734 246.0734 246.0945 246.1635
   246.2411 246.2823 246.2823 246.2825 246.2825 246.3334 246.3334 246.4070
   246.4070 246.5077 246.5077 246.5495 246.5786 247.1312 247.2069 247.2069
   247.2417 247.2510 247.2510 247.3297 247.3297 247.3914 247.3914 247.4430
   247.5201 251.0001 251.0735 251.0735 251.0956 251.6464 251.7743 251.7743
   251.7948 251.7948 251.9680 252.0311 252.0311 252.2245 252.2307 252.2755
   252.2755 252.3587 252.4310 252.5957 252.5957 252.6642 252.6642 252.8022
   252.8022 252.8609 252.8832 255.6683 255.6683 256.6797 257.9443 257.9443
   257.9757 257.9757 258.0402 258.3831 258.6824 258.6824 258.7174 258.7174
   258.7411 258.8673 258.8673 258.9555 258.9555 259.1079 259.1620 259.1620
   259.1858 259.1858 259.2577 259.2696 259.4074 259.4207 259.4885 259.4885
   259.5507 259.7384 259.7384 259.9312 259.9312 259.9950 260.0145 260.2057
   260.3392 260.3392 260.4231 260.4231 260.4737 260.8749 260.8749 261.0391
   261.1700 261.1700 261.2917 261.2917 261.3976 261.4168 261.4168 261.4203
   262.0277 262.4134 262.7071 263.8629 263.8629 263.8643 263.8643 264.2164
   264.4524 264.5787 264.5787 264.5816 264.5816 266.4110 266.5840 266.5840
   266.6049 266.6049 266.8594 266.8594 266.9015 266.9015 266.9138 267.0843
   267.0882 267.1871 267.4603 267.4603 267.6058 267.6848 267.6848 267.7079
   267.7079 267.7502 267.7502 267.7828 267.7935 270.5790 270.8800 272.9305
   273.8440 273.8440 273.9224 273.9224 274.1705 274.3736 274.6344 274.6344
   274.6785 274.6785 274.9877 275.0383 275.0383 275.0603 275.0603 275.2750
   275.2750 275.3000 275.3000 275.5122 275.5129 275.6691 275.6718 275.7062
   275.8304 275.8488 275.9034 276.0419 276.0419 276.0642 276.0642 276.0745
   276.0745 276.0884 276.0884 276.2854 276.2854 276.3371 276.3431 276.3431
   276.3593 276.3593 276.3728 276.3728 276.4186 276.4205 276.4306 280.7166
   281.3289 281.9352 282.0431 282.0431 282.3727 282.3727 282.4580 282.7918
   282.7918 282.8530 282.8530 283.2770 283.4077 283.6022 283.6022 283.6341
   283.6341 284.2657 284.2657 284.3958 284.5491 284.5491 284.6327 284.6684
   284.6684 284.8318 284.8318 284.9867 284.9886 285.2953 285.3151 285.3151
   285.3916 285.5271 285.5271 285.5991 285.5991 285.6758 285.6758 285.7226
   285.7317 287.9804 287.9804 288.1100 288.1100 288.1700 288.2202 289.0301
   289.0301 289.0437 289.0506 289.0506 289.0531 289.1163 289.2062 289.2075
   289.2075 289.2171 289.2171 289.3853 290.1139 290.1139 290.2092 290.2275
   290.2275 290.3703 290.3703 290.4041 290.4126 290.4943 290.4990 290.4990
   290.5196 290.5196 290.5406 290.6059 290.6059 290.6261 290.7137 290.7137
   290.7236 290.7236 290.8595 291.5573 291.5580 292.0476 292.0476 292.0662
   292.0662 292.1953 292.2384 292.2384 292.2545 292.2545 292.2744 292.4182
   292.4245 292.6478 292.6478 292.7053 292.7098 292.7098 292.7271 292.7271
   292.7281 292.7315 292.7482 292.7570 292.7570 294.4331 294.4599 294.4599
   294.5945 294.5945 294.7627 294.7862 294.7862 294.8542 294.8542 295.0735
   295.0756 295.1637 295.3405 295.3566 295.3566 295.4146 295.4146 295.6372
   295.6372 295.6775 295.6775 295.8399 295.8463 295.8927 295.9163 295.9841
   295.9841 295.9980 295.9980 296.0219 296.0219 296.0337 296.0363 296.0428
   296.0428 299.6478 299.6478 299.7029 299.7645 299.7645 299.7748 299.7748
   299.8038 299.8172 299.8186 299.8186 299.8253 300.3807 301.0207 302.5706
   302.5706 302.5854 302.5854 302.9450 303.2011 303.4185 303.4185 303.4325
   303.4325 304.0820 304.0820 304.2107 304.3312 304.3312 304.3883 304.3883
   304.4591 304.4799 304.4799 304.4875 304.4991 304.9775 305.0997 305.0997
   305.1985 305.1985 305.4085 305.5711 305.5711 305.6465 305.6465 305.9138
   305.9148 306.1400 306.2835 306.3261 306.3261 306.3528 306.3528 306.5599
   306.5599 306.5834 306.5834 306.6671 306.6741 306.7736 306.9583 306.9642
   306.9642 306.9698 306.9698 307.1324 307.1324 307.1384 307.1384 307.1573
   307.2104 309.1929 309.3977 309.4943 309.4943 309.5089 309.5089 309.8533
   309.8533 309.8763 309.8763 309.9439 309.9439 310.0386 310.0386 310.0471
   310.0540 310.0556 310.0557 310.0676 310.0676 310.0797 310.0894 310.1015
   310.1015 312.8578 312.8930 315.7486 315.7486 315.8497 316.0634 316.0634
   316.1424 316.1424 316.2201 316.2322 316.2322 316.2494 316.2688 316.7663
   316.9098 316.9098 316.9928 316.9928 317.1784 317.2693 317.2693 317.3270
   317.3270 317.5094 317.5095 317.8816 317.9643 318.0385 318.0385 318.0540
   318.0540 318.2049 318.2049 318.2306 318.2306 318.2846 318.2967 320.7221
   321.3373 322.6563 322.6563 322.7770 322.7770 322.9735 323.1281 323.1281
   323.2653 323.2653 323.2934 323.2934 323.3549 323.3672 323.3800 323.3800
   323.3842 323.5529 323.5661 323.9351 323.9351 323.9416 323.9416 324.0070
   324.0070 324.0124 324.0124 324.0498 324.1108 324.1739 324.1800 324.1832
   324.1832 324.1866 324.1866 327.3488 327.6131 327.6131 327.6676 327.6676
   327.6715 328.1214 328.1214 328.1539 328.1539 328.3750 328.3859 329.1370
   329.1377 329.1377 329.3212 329.3212 329.4402 329.5414 329.5414 329.6206
   329.6206 329.8539 329.8616 330.0055 330.1212 330.1676 330.1676 330.2575
   330.2575 330.4948 330.4948 330.5415 330.5415 330.6666 330.6750 331.2440
   331.2440 331.2526 331.2610 331.2687 331.2687 331.3253 331.3253 331.3698
   331.3698 331.3791 331.3814 334.8306 334.9031 338.9209 338.9209 339.0545
   339.5142 339.5142 339.5817 339.5817 339.6608 339.7205 339.7205 339.7424
   339.7517 340.0633 340.6247 340.7611 340.7611 340.8101 340.8101 341.4242
   341.4242 341.4552 341.4552 341.5843 341.6543 342.6113 342.6113 342.7385
   342.7523 342.7523 342.7579 342.7579 342.8053 342.8085 342.8085 342.9467
   342.9573 343.0457 343.2531 343.3709 343.3709 343.4183 343.4183 343.4653
   343.4936 343.6087 343.6087 343.6585 343.6585 343.7151 343.7407 344.7884
   344.8060 344.8060 344.8114 344.8114 344.8702 345.2307 345.2307 345.2388
   345.2388 347.0068 347.0068 347.0589 347.0965 347.0965 347.1551 347.3358
   347.3358 347.3530 347.3530 347.5336 347.5338 347.9596 347.9596 348.8676
   348.8676 348.9806 348.9964 349.0437 349.0437 349.1121 349.1229 349.1229
   349.1253 351.2911 351.2911 352.5684 352.5684 353.7946 354.1207 355.4530
   355.9611 355.9611 356.1378 356.1378 356.1924 356.4826 356.4826 356.5253
   356.5253 356.8083 356.8571 356.8952 357.0928 357.2102 357.2102 357.3319
   357.3319 357.4992 357.4992 357.5775 357.5775 357.6119 357.6287 357.6916
   357.7361 359.0199 359.1221 359.1221 359.1445 359.1677 359.1750 359.1750
   359.1765 359.1765 359.3309 359.3309 359.3806 359.6996 359.7937 359.8909
   359.8909 359.9019 359.9019 360.0601 360.0601 360.0613 360.0613 360.1156
   360.1465 364.6392 365.0786 365.8712 366.0378 366.0900 366.0900 366.1134
   366.1134 366.7021 366.7021 366.7063 366.7063 367.3063 367.3063 367.3098
   367.3098 367.3727 367.3740 367.9788 367.9788 367.9790 367.9790 368.0971
   368.0975 369.4891 369.6427 369.6427 369.6545 369.6545 369.8528 369.8528
   369.8825 369.8825 369.8923 369.9183 369.9291 370.8097 370.8295 370.8295
   370.9558 370.9558 371.0826 371.1907 371.1907 371.2509 371.2509 371.4089
   371.4216 371.9295 371.9539 372.0484 372.0484 372.0529 372.0529 372.1754
   372.1754 372.1853 372.1853 372.2176 372.2505 377.6581 377.8221 377.8221
   378.0126 378.0126 378.0302 378.1271 378.1271 378.4762 378.6285 378.7930
   378.7930 379.0209 379.0209 379.0724 379.0724 379.1267 379.1827 379.2542
   379.2542 380.9171 381.0636 381.0636 381.2228 381.3343 381.5433 381.5447
   381.5691 381.5691 381.6268 381.6340 381.6340 381.9833 381.9833 382.6164
   382.8643 382.8643 383.8876 384.0859 384.1098 384.1098 384.6837 384.6837
   384.9617 384.9920 385.0065 385.0065 385.1177 385.1193 385.1193 385.1516
   385.1516 385.1565 385.1565 385.1643 385.3666 385.9674 385.9674 386.0034
   386.0734 386.1756 386.1756 386.2803 386.3058 386.3058 386.3737 386.3737
   386.4082 386.4082 386.4524 386.4531 386.4725 386.4725 386.4745 386.5069
   386.5069 386.6232 386.6420 386.6420 386.7562 386.7720 386.8945 386.8945
   386.9168 386.9168 387.2848 387.2848 387.2906 387.2906 387.3770 387.4340
   387.4381 387.4771 387.6079 387.6867 387.6867 387.6966 387.6966 387.9923
   387.9923 387.9924 387.9924 388.1485 388.1503 388.2304 388.3488 388.5595
   388.5997 388.5997 388.6462 388.6590 388.6590 388.6789 388.6789 388.6838
   388.7259 388.7259 389.1287 389.7632 389.7632 389.7665 389.7665 390.6210
   390.6210 390.6256 390.6256 390.6551 390.6578 390.6991 391.4199 391.4199
   391.6587 391.6587 391.6821 391.7078 391.7078 391.7467 391.7467 391.7590
   391.8176 392.0513 392.9925 392.9925 393.7652 393.8514 393.8514 393.9572
   393.9572 393.9618 393.9618 393.9668 394.0065 394.0065 394.0349 394.0591
   394.5298 394.5298 394.9527 395.6905 395.6908 395.6915 395.6915 395.7001
   395.7001 395.9127 395.9641 395.9641 396.2923 396.2923 396.5974 398.1824
   398.5449 398.5478 398.5478 398.5765 398.5765 398.9201 398.9201 398.9223
   398.9223 399.0399 399.0817 400.3023 400.3324 400.3324 400.3793 400.3793
   400.3924 400.5111 400.5111 400.5614 400.5667 400.5667 400.6109 402.1140
   402.3107 402.3107 402.3625 402.3625 402.4598 402.6212 402.6212 402.6252
   402.6252 402.8659 402.8917 403.0354 403.1862 403.3280 403.3280 403.3350
   403.3350 403.5783 403.5783 403.5868 403.5868 403.6822 403.6895 405.3821
   405.4910 405.6097 405.6487 405.6487 405.8032 405.8032 405.8715 405.9326
   405.9326 405.9937 405.9937 406.0254 406.0384 406.8961 406.9991 406.9991
   407.0741 407.0818 407.0818 407.0968 407.0968 407.1287 407.1287 407.1345
   407.1940 408.2053 408.3374 408.5189 408.5189 408.5439 408.5439 408.9002
   409.0594 409.0594 409.1341 409.1341 409.1365 409.1365 409.3680 409.3723
   409.5917 409.5917 409.8844 410.8093 411.0015 411.0015 411.2026 411.2026
   411.2625 411.5721 411.7406 412.1626 412.1626 412.2056 412.2056 412.2423
   412.2726 412.4775 412.5249 412.5249 412.6026 412.6026 412.6400 413.2717
   413.2717 413.2881 413.2881 414.1603 414.1606 414.1606 414.1625 414.1625
   414.1794 415.6746 415.6746 415.8712 415.8712 415.8724 416.0111 416.1943
   416.2494 416.2494 416.3338 416.3338 416.3759 416.9527 416.9527 416.9607
   416.9740 416.9740 416.9768 417.0109 417.0109 417.0150 417.0301 417.0301
   417.0437 417.0661 417.0981 417.0981 417.1165 417.1246 417.1246 417.1716
   417.1716 417.1795 417.1842 417.1842 417.2017 417.8036 418.0585 418.0585
   418.1277 418.1277 418.2365 418.2535 418.2535 418.2912 418.3527 418.3527
   418.3791 418.3821 418.3821 418.3867 418.4102 418.4102 418.4307 418.4337
   418.4699 418.5030 418.5030 418.5047 418.5047 418.5078 418.5103 418.5103
   418.5452 418.5589 418.5589 418.9876 418.9876 419.0307 419.0307 419.1666
   419.2106 419.2106 419.2119 419.2119 419.2750 419.2913 419.2956 419.3087
   419.3087 419.3174 419.3174 419.6195 419.6328 419.7480 419.7529 419.8482
   419.8482 419.8557 419.8557 419.8602 419.8928 419.8928 419.9008 419.9046
   419.9046 419.9364 419.9714 420.1799 420.1799 420.1841 420.1841 420.4410
   420.4410 420.4470 420.4470 420.4908 420.5490 420.5529 420.5529 420.5530
   420.5530 420.5894 420.5957 420.6102 420.6102 420.6330 420.6330 420.6648
   420.6819 420.7515 420.7715 420.7848 420.7848 420.8222 420.8222 420.8468
   420.8468 420.8808 420.8808 420.8841 420.9101 421.1624 421.1646 421.2286
   421.2286 421.2402 421.2402 421.3050 421.3050 421.3165 421.3165 421.3374
   421.3377 423.6016 423.6316 423.6316 423.6325 423.6325 423.6923 423.7023
   423.7023 423.7079 423.7079 423.7302 423.7623 423.8780 423.8937 423.9105
   423.9105 423.9193 423.9193 423.9658 423.9658 423.9798 423.9798 423.9972
   424.0148 426.8937 426.8937 426.9014 426.9349 426.9349 426.9725 426.9725
   426.9902 426.9902 427.0077 427.0140 427.0280 427.5119 427.5609 427.5609
   427.5767 427.5767 427.5997 427.6885 427.6885 427.7101 427.7101 427.8375
   427.8394 427.8418 427.8520 427.9565 427.9565 427.9757 427.9757 428.0545
   428.0545 428.0573 428.0573 428.0965 428.1012 429.3629 429.6810 430.5244
   430.5244 430.5415 430.5415 431.2024 431.2024 431.2096 431.2096 431.2863
   431.3027 431.4655 431.4688 432.1300 432.1300 432.1541 432.2045 432.2045
   432.2590 432.2659 432.2659 432.3114 432.3114 432.3498 432.3615 432.5570
   432.5822 432.5919 432.5919 432.6238 432.6238 432.6722 432.6722 432.6933
   432.6933 432.7161 432.7276 434.6638 434.9096 434.9096 434.9655 434.9655
   435.1068 435.2432 435.2432 435.2822 435.2822 435.4171 435.4405 435.6444
   435.6714 435.6825 435.7877 435.7877 435.7902 435.7902 435.8533 435.9246
   435.9246 435.9272 435.9272 435.9723 435.9872 436.5637 436.5637 436.5823
   436.5823 436.9156 436.9884 437.0450 437.0450 437.0763 437.0763 437.3229
   437.3335 437.6974 437.6974 437.7061 437.7061 437.7520 437.7716 437.8148
   437.8484 437.8584 437.8584 437.8760 437.8760 437.8813 437.8813 437.9046
   437.9046 438.0139 438.0139 438.0245 438.0245 438.0622 438.0624 438.1171
   438.1280 438.1421 438.1421 438.1489 438.1489 438.1947 438.1947 438.2077
   438.2138 438.2142 438.2142 438.2764 438.2764 438.2930 438.2930 438.3227
   438.3300 438.5149 438.5211 438.5285 438.5285 438.5314 438.5314 440.8578
   440.9197 440.9197 440.9201 440.9201 440.9255 441.0315 441.0315 441.0328
   441.0328 441.0965 441.1209 443.8116 443.8116 443.8468 443.8993 443.8993
   443.9659 443.9691 443.9691 444.0041 444.0041 444.0383 444.1029 444.2983
   444.3040 444.3260 444.3260 444.3391 444.3391 444.3944 444.3944 444.3948
   444.3948 444.4219 444.4322 445.2083 445.2119 445.2119 445.2355 445.2355
   445.2511 445.2540 445.2540 445.2670 445.2670 445.2814 445.2913 450.2721
   450.3981 450.3981 450.4716 450.4716 450.6321 450.6321 450.6346 450.6729
   450.6729 450.7079 450.7391 451.2041 451.2041 451.2243 451.2371 451.2371
   451.2513 451.2513 451.2684 451.2833 451.2833 451.3085 451.3150 451.4391
   451.4420 451.4956 451.4956 451.5057 451.5057 451.5821 451.5821 451.5877
   451.5877 451.6204 451.6245 452.6938 452.9100 453.3730 453.3730 453.3892
   453.3892 454.0137 454.0137 454.0253 454.0253 454.2767 454.2838 454.8402
   454.9277 454.9277 454.9693 454.9693 455.0507 455.0619 455.0619 455.0836
   455.0836 455.0892 455.1086 455.2304 455.2941 455.2941 455.3051 455.3064
   455.3064 455.5023 455.5023 455.5314 455.5314 455.7195 455.7253 456.2372
   456.2442 456.4008 456.4008 456.4018 456.4018 456.5580 456.5580 456.5648
   456.5648 456.6258 456.6313 456.7622 456.7716 458.7767 458.7767 458.8159
   458.8596 458.8596 458.8859 458.9228 458.9228 458.9848 458.9848 459.0313
   459.0433 459.2821 459.2850 459.3358 459.3358 459.3555 459.3555 459.4441
   459.4441 459.4537 459.4537 459.4964 459.4986 460.7133 460.8862 462.2005
   462.2005 462.2180 462.2180 463.0219 463.0219 463.0273 463.0273 463.1172
   463.1712 463.2410 463.2515 463.4460 463.4460 463.4518 463.4518 463.6029
   463.6190 463.6435 463.6435 463.6438 463.6438 465.5996 465.5996 465.6001
   465.6694 465.6694 465.7756 465.7891 465.7891 465.8247 465.8247 465.8791
   465.8971 466.8534 466.8838 466.9009 466.9009 466.9339 466.9339 467.0052
   467.0052 467.0251 467.0251 467.0401 467.0871 467.5160 467.5160 467.5522
   467.5725 467.5725 467.6043 467.6121 467.6121 467.6683 467.6683 467.7313
   467.7591 467.8514 467.8610 467.9616 467.9616 467.9784 467.9784 468.0906
   468.0906 468.1038 468.1038 468.1504 468.1554 473.8146 474.0952 474.0952
   474.1321 474.1321 474.1817 474.4953 474.4953 474.5306 474.5306 474.8007
   474.8018 474.9802 475.0716 475.2379 475.2379 475.2418 475.2418 475.4699
   475.4699 475.4820 475.4820 475.5722 475.5723 476.4085 476.4085 476.5335
   476.5641 476.5905 476.5905 476.5937 476.5937 476.7123 476.7123 476.7379
   476.7669 476.8628 476.9258 476.9971 477.0079 477.0529 477.0529 477.0662
   477.0662 477.1695 477.1695 477.1743 477.1743 477.2276 477.2357 477.2550
   477.2550 477.2690 477.2690 477.7744 477.7744 477.7759 477.7759 477.8741
   477.8741 477.8764 477.8856 477.9219 477.9219 477.9603 477.9603 477.9774
   477.9774 477.9824 477.9837 478.0182 478.0212 483.1536 483.1536 483.1825
   483.2197 483.5713 483.5713 483.6539 483.7378 483.7391 483.7391 483.8004
   483.8281 483.8281 483.8362 484.0431 484.0431 484.2005 484.2005 484.3924
   484.6654 485.1039 485.3503 485.5781 485.5781 485.6040 485.6040 485.9700
   485.9700 485.9760 485.9760 486.1106 486.1207 486.7461 486.7885 486.7885
   486.9150 486.9150 486.9578 487.1183 487.1241 487.1241 487.1804 487.1804
   487.2610 487.2689 487.3128 487.3128 487.3279 487.3279 487.3281 487.3886
   487.3886 487.3936 487.3936 487.4184 487.4321 487.6006 487.6188 488.7987
   488.7987 488.8031 488.8031 489.4400 489.4400 489.4460 489.4460 489.4567
   489.4735 489.9671 489.9860 489.9860 489.9900 489.9973 489.9973 490.0010
   490.0010 490.0057 490.0173 490.0173 490.0703 493.9253 494.1127 494.1127
   494.1240 494.1240 494.1462 494.4112 494.4112 494.4330 494.4330 494.6727
   494.6749 494.9756 495.0300 495.2024 495.2024 495.2066 495.2066 495.4209
   495.4209 495.4244 495.4244 495.5146 495.5181 497.5255 497.5738 497.5738
   497.6484 497.6484 497.7055 497.7055 497.7211 497.7388 497.7734 497.7734
   497.8748 498.1366 498.1448 498.1854 498.1854 498.1873 498.1873 498.2752
   498.2752 498.2804 498.2804 498.3229 498.3231 500.7911 501.0265 501.1418
   501.1418 501.1599 501.1599 501.4418 501.4418 501.4524 501.4524 501.5139
   501.5322 501.6363 501.6379 501.7772 501.7772 501.7862 501.7862 502.1332
   502.1332 502.1364 502.1364 502.3165 502.3174 503.0638 503.0719 503.0820
   503.0820 503.0860 503.0860 503.1154 503.1154 503.1230 503.1238 503.1238
   503.1819 506.2159 506.2223 506.2223 506.2628 506.2634 506.2634 508.6726
   508.9332 508.9762 508.9762 509.0521 509.0521 509.2636 509.2636 509.2788
   509.3178 509.3453 509.3453 509.3633 509.3633 509.3960 509.3960 509.4134
   509.4549 509.6068 509.6068 509.6137 509.6137 509.7133 509.7221 509.7241
   509.7261 509.7877 509.7877 509.7975 509.7975 509.9012 509.9012 509.9043
   509.9043 509.9508 509.9538 510.6156 510.6203 512.0511 512.0511 512.0731
   512.0731 512.0855 512.0907 512.9449 512.9510 512.9510 512.9546 512.9546
   512.9557 513.0983 513.1048 513.1137 513.1137 513.1190 513.1190 513.7753
   513.9008 514.3005 514.3005 514.3107 514.3141 514.3141 514.3253 514.4160
   514.4275 514.4298 514.4298 514.4388 514.4388 514.6331 514.6331 514.6408
   514.6408 514.7549 514.8461 514.9872 514.9872 515.0052 515.0052 515.2907
   515.2938 515.4577 515.4696 515.4696 515.4719 515.4719 515.5292 515.7045
   515.7045 515.7063 515.7063 515.9276 515.9276 515.9409 515.9409 516.0190
   516.0203 516.0999 516.0999 516.1001 516.1001 516.1305 516.1355 516.6113
   516.6113 516.6261 516.6277 516.6291 516.6291 516.6314 516.6344 516.6344
   516.6428 516.6480 516.6480 516.9535 516.9569 516.9569 516.9706 516.9706
   516.9779 516.9779 516.9860 516.9860 516.9861 516.9925 517.0000 519.6832
   519.6884 519.6920 519.6920 519.6982 519.6982 519.7087 519.7087 519.7130
   519.7130 519.7192 519.7567 519.8354 519.8513 519.8690 519.8690 519.8715
   519.8715 519.9018 519.9018 519.9018 519.9020 519.9020 519.9338 521.6404
   521.6621 521.6621 521.6832 521.6832 521.7320 521.7871 521.7871 521.8029
   521.8029 521.8581 521.8834 522.0835 522.0911 522.1630 522.1630 522.1670
   522.1670 522.2770 522.2770 522.2798 522.2798 522.3281 522.3327 523.7189
   523.7189 523.7191 523.7272 523.7295 523.7295 523.7353 523.7358 523.7358
   523.7387 523.7387 523.7456 526.1828 526.2994 526.5765 526.5765 526.5969
   526.5969 527.1728 527.1728 527.1761 527.1761 527.4219 527.4266 528.3889
   528.3889 528.4190 528.4190 528.4249 528.4309 528.4334 528.4347 528.4386
   528.4386 528.4439 528.4439 531.3148 531.3420 531.3420 531.3667 531.3667
   531.4002 531.4002 531.4204 531.4204 531.4240 531.4347 531.4417 533.0462
   533.2457 533.3554 533.3554 533.3684 533.3684 533.7619 533.7619 533.7886
   533.7886 533.8232 533.8232 533.8367 533.8404 533.8510 533.8515 533.8515
   533.8772 533.9148 533.9148 533.9162 533.9162 534.0645 534.0659 534.7137
   534.7485 534.7485 534.7679 534.7679 534.7730 534.8835 534.8835 534.9065
   534.9065 535.0093 535.0287 535.1329 535.1428 535.2651 535.2651 535.2676
   535.2676 535.4044 535.4044 535.4070 535.4070 535.4643 535.4664 536.2372
   536.2983 536.3147 536.3147 536.3218 536.3218 536.4816 536.4816 536.4853
   536.4853 536.7028 536.7130 536.8678 536.9162 537.1411 537.1411 537.1482
   537.1482 537.3984 537.3984 537.4026 537.4026 537.5129 537.5195 538.6103
   538.6161 539.0732 539.0743 539.1129 539.1129 539.1227 539.1227 539.1592
   539.1592 539.1641 539.1681 539.1681 539.2054 540.2176 540.2176 540.2379
   540.2393 540.2393 540.2447 540.2489 540.2489 540.2527 540.2573 540.2580
   540.2580 541.2463 541.2790 542.6926 542.6926 542.6941 542.6941 543.3970
   543.3970 543.3973 543.3973 543.4787 543.4850 546.6244 546.6244 546.6314
   546.6688 546.6688 546.7033 546.7033 546.7308 546.7308 546.7391 546.7455
   546.7470 547.1987 547.1987 547.2061 547.2216 547.2216 547.2231 547.2231
   547.2271 547.2286 547.2361 547.2361 547.2563 548.5924 548.6394 548.6394
   548.6566 548.6566 548.6663 548.7905 548.7905 548.8175 548.8175 548.9406
   548.9478 549.0411 549.0415 549.1768 549.1768 549.1797 549.1797 549.3134
   549.3134 549.3178 549.3178 549.3737 549.3757 552.0352 552.1340 552.3937
   552.3937 552.4069 552.4069 553.0104 553.0104 553.0116 553.0116 553.2769
   553.2784 555.0378 555.0378 555.0783 555.0799 555.0799 555.0924 555.0924
   555.0986 555.1006 555.1095 555.1095 555.1097 557.1810 557.4351 557.4873
   557.4873 557.5101 557.5101 558.0518 558.0518 558.0814 558.0814 558.3200
   558.3667 558.5360 558.5360 558.5407 558.5407 558.5826 558.5887 558.5887
   558.5899 558.5914 558.5914 558.7571 558.7585 559.0074 559.0140 559.2829
   559.2829 559.2838 559.2838 559.4825 559.4825 559.4835 559.4835 559.5996
   559.6031 559.6284 559.6319 559.7500 559.7500 559.7541 559.7541 559.8487
   559.8487 559.8504 559.8504 559.8691 559.8729 562.4983 562.4983 562.5353
   562.5797 562.5797 562.6142 562.6255 562.6255 562.6752 562.6752 562.7166
   562.7215 563.0251 563.0765 563.0765 563.0796 563.1223 563.1223 563.2790
   563.2790 563.3062 563.3062 563.4066 563.4290 563.6624 563.6689 563.7513
   563.7513 563.7589 563.7589 563.8499 563.8499 563.8610 563.8656 563.8656
   563.8788 564.0826 564.0826 564.0857 564.0914 564.1032 564.1032 564.1072
   564.1072 564.1137 564.1137 564.1367 564.1387 567.3560 567.3743 569.3248
   569.3487 570.7688 570.7688 570.7720 570.7720 571.4834 571.4834 571.4835
   571.4835 571.6161 571.6228 572.0960 572.0960 572.4193 572.4193 572.7349
   572.9570 572.9725 572.9725 572.9827 572.9925 572.9925 572.9933 573.1211
   573.3193 573.3193 573.7110 573.7110 574.4414 577.5956 577.8582 577.8582
   577.9345 577.9345 577.9627 578.2422 578.2422 578.2571 578.2571 578.4096
   578.4355 578.7028 578.7240 578.7941 578.8378 578.8378 578.8561 578.8622
   578.8622 578.8743 578.8743 578.8874 578.8874 579.0115 579.0115 579.0308
   579.0375 579.0375 579.0377 579.3084 579.3084 579.3109 579.3109 579.4363
   579.4464 579.6027 579.6038 579.6582 579.6582 579.6603 579.6603 579.7706
   579.7706 579.7740 579.7740 579.8299 579.8335 580.1464 580.1464 580.1502
   580.1502 580.1684 580.1692 580.1727 580.1727 580.1735 580.1735 580.1750
   580.1907 581.0695 581.1384 581.1868 581.1868 581.1970 581.1970 581.4579
   581.4579 581.4638 581.4638 581.6682 581.6795 582.2540 582.2578 582.3841
   582.3841 582.3853 582.3853 582.5112 582.5112 582.5162 582.5162 582.5647
   582.5734 583.0681 583.0681 583.0815 583.1057 583.1191 583.1191 583.1226
   583.1305 583.1305 583.1426 583.1426 583.1884 584.7855 584.8088 584.8764
   584.8764 584.8787 584.8787 585.0533 585.0533 585.0534 585.0534 585.1364
   585.1419 586.0641 586.0641 586.1102 586.1388 586.1388 586.4610 593.5992
   593.6442 593.6442 593.7329 593.7329 593.7397 593.7397 593.7517 593.7827
   593.7884 593.7884 593.8269 594.6898 594.7339 594.7339 594.7371 594.7371
   594.7587 594.8203 594.8203 594.8254 594.8254 594.8739 594.8869 595.0355
   595.0946 595.1107 595.1107 595.1335 595.1335 595.1986 595.1986 595.2027
   595.2027 595.2305 595.2354 596.8080 596.8507 597.4973 597.5264 597.5264
   597.5354 597.5354 597.5480 597.5489 597.5489 597.5540 597.5540 597.5562
   597.5733 598.1956 598.2290 599.5855 599.5855 599.5865 599.5865 600.1874
   600.2052 600.2052 600.2157 600.2157 600.2336 600.2808 600.2808 600.2839
   600.2839 600.4585 600.4931 600.7585 600.7585 600.7616 600.7703 600.7703
   600.7712 600.7767 600.7767 600.7838 600.7860 600.7860 600.7951 603.7397
   603.7534 603.7534 603.7910 603.7910 603.8044 604.4926 604.6274 604.6588
   604.6588 604.6751 604.6751 604.9755 604.9755 604.9908 604.9908 605.2421
   605.2425 605.4360 605.4537 605.5020 605.5020 605.5180 605.5180 605.5384
   605.5543 605.5563 605.5659 605.5659 605.5728 605.5728 605.5961 605.6593
   605.6593 605.6599 605.6599 605.8877 605.8877 605.8919 605.8919 605.9948
   605.9960 606.5774 606.5863 606.7496 606.7496 606.7514 606.7514 607.1596
   607.1596 607.1622 607.1622 607.3678 607.3696 607.6114 607.6114 607.6211
   607.6211 607.6256 607.6811 608.2929 608.2929 608.2951 608.2951 608.3053
   608.3079 608.8594 608.8714 608.8714 608.8743 608.8743 608.8849 608.9514
   608.9519 608.9519 608.9614 608.9614 608.9683 608.9962 609.0063 609.0063
   609.0085 609.0085 609.0169 609.1068 609.1112 609.1112 609.1167 609.1167
   609.1356 610.1553 610.1553 610.1603 610.1603 610.1604 610.1745 610.2369
   610.2433 610.2433 610.2455 610.2455 610.2525 610.3779 610.3779 610.3784
   610.3784 610.3798 610.3983 610.5078 610.5123 610.5123 610.5192 610.5192
   610.5304 611.2150 611.3075 611.3109 611.3109 611.3148 611.3148 611.4625
   611.4625 611.4727 611.4727 611.4881 611.5107 611.5696 611.5696 611.5761
   611.5781 611.5788 611.5788 611.7335 611.7335 611.7370 611.7370 611.8298
   611.8336 611.9378 611.9591 612.0039 612.0039 612.0055 612.0055 612.0973
   612.0973 612.0974 612.0974 612.1392 612.1403 612.4170 612.4331 612.4331
   612.4428 612.4428 612.4480 612.4480 612.4510 612.4525 612.4574 612.4574
   612.4742 612.7356 612.7356 612.7406 612.7416 612.7416 612.7569 612.7866
   612.7913 612.7913 612.7945 612.7945 612.8090 615.4542 615.4636 615.4636
   615.4725 615.4725 615.4743 615.4994 615.4994 615.5140 615.5140 615.5290
   615.5419 615.8019 615.8161 615.8161 615.8176 615.8176 615.8290 615.8290
   615.8333 615.8333 615.8344 615.8455 615.8503 615.9564 615.9632 615.9632
   615.9692 615.9692 615.9754 615.9854 615.9886 615.9886 615.9924 615.9924
   616.0020 617.8824 617.8885 617.8885 617.8979 617.9005 617.9005 617.9008
   617.9008 617.9016 617.9084 617.9084 617.9356 619.3966 619.3966 619.4028
   619.4099 619.4099 619.4113 619.4181 619.4181 619.4245 619.4245 619.4268
   619.4453 619.8819 619.8819 619.8855 619.8855 619.8897 619.8982 619.9093
   619.9093 619.9181 619.9199 619.9199 619.9242 622.7810 622.8334 622.8334
   622.8379 622.8379 622.8438 622.8752 622.8752 622.8853 622.8853 622.8906
   622.8914 624.0816 624.0816 624.0935 624.0935 624.0955 624.0974 624.0974
   624.0979 624.1004 624.1004 624.1146 624.1207 624.6089 624.6089 624.6164
   624.6164 624.6187 624.6400 624.6658 624.6698 624.6698 624.6768 624.6768
   624.6915 626.8699 626.9329 627.7998 627.8505 628.3992 628.3992 628.4028
   628.4028 628.5037 628.6385 628.7694 628.7694 628.8139 628.8139 629.0934
   629.0934 629.1022 629.1022 629.1183 629.1212 629.1753 629.1930 629.4219
   629.4219 629.4223 629.4223 629.4364 629.4450 629.5060 629.5060 629.5190
   629.5190 629.5670 629.5670 629.5753 629.5753 629.6161 629.6340 629.6606
   629.6606 629.6639 629.6639 629.7085 629.7143 629.7708 629.7745 629.7833
   629.7833 629.7834 629.7834 629.8410 629.8410 629.8470 629.8470 629.9104
   629.9233 629.9753 629.9832 629.9926 629.9926 629.9974 629.9974 630.0999
   630.0999 630.1193 630.1362 630.1362 630.1650 630.1784 630.1803 630.1803
   630.1950 630.1950 630.2163 630.2570 630.2570 630.2584 630.2584 630.3307
   630.3307 630.3369 630.3369 630.3519 630.3541 630.4091 630.4160 631.0953
   631.1026 631.1026 631.1043 631.1159 631.1159 631.1267 631.1267 631.1289
   631.1305 631.1305 631.1389 634.4489 634.4795 634.6087 634.6087 634.6163
   634.6163 634.9337 634.9337 634.9480 634.9480 634.9572 634.9617 635.0015
   635.0081 635.0081 635.0179 635.0179 635.0332 635.1880 635.1880 635.1888
   635.1888 635.4212 635.4215 635.7855 635.7855 635.8339 635.8362 635.8362
   635.8588 635.8588 635.8608 635.8654 635.8654 635.8664 635.8816 636.3517
   636.3517 636.3657 636.4205 636.4205 636.4703 636.5076 636.5082 636.5082
   636.5143 636.5143 636.5289 638.6531 638.6765 638.7513 638.7513 638.7573
   638.7573 638.9962 638.9962 639.0005 639.0005 639.1205 639.1217 640.4085
   640.4090 640.5657

          k = 0.0000 0.0962 0.0000 (  7283 PWs)   bands (ev):

   -21.6815  -9.4896  -6.2953  -6.0093   0.5882   1.3691   1.4121   2.4586
     2.7675   4.4208   5.0109   6.9195   6.9851   7.6836   7.8400   8.7783
    10.1121  11.7234  12.9138  16.0151  17.3315  20.8765  21.1058  22.7848
    23.5483  24.1012  26.1115  27.3086  28.0689  28.1470  28.3647  28.9388
    29.4350  29.4368  29.5617  30.0009  30.3077  30.6929  30.8199  30.8759
    30.9494  31.5866  31.7228  31.9591  32.0248  32.2900  32.3072  32.5498
    34.0157  34.0919  34.4332  34.4887  34.5169  34.6759  34.7143  35.4868
    35.5069  35.9270  36.0126  36.1820  36.2009  36.2310  36.8189  37.0810
    37.0990  37.3850  37.4382  37.4773  37.6631  37.7274  38.1315  38.5905
    38.6817  38.7881  38.8547  39.3941  39.4140  39.8085  39.8438  40.0243
    40.1366  40.7571  40.8996  41.4791  41.5274  41.8417  42.1766  42.2847
    42.3327  42.6425  42.9468  43.2831  43.5874  43.5990  43.7628  44.6925
    44.7453  45.0684  45.8415  46.2039  46.2112  46.2385  46.6427  46.7055
    46.9527  47.6623  48.3397  48.5161  49.1087  49.2036  50.2589  50.3429
    50.8370  51.2702  51.4433  51.7011  51.9695  52.1560  52.4326  52.5751
    52.7509  53.9646  54.4634  54.8486  55.7211  56.3478  56.9733  57.0625
    57.1778  57.2997  58.1335  58.3973  58.3997  59.3867  59.9615  60.2285
    61.3890  61.9173  62.5421  62.9089  63.2566  63.3694  63.5072  64.3615
    64.9167  65.1416  65.3459  65.8860  66.1955  66.4977  68.0095  69.1566
    70.0684  70.1738  70.2789  70.2961  70.4181  70.8700  71.2900  72.6421
    72.8461  72.9163  72.9996  73.0655  73.3393  75.8884  77.3359  77.7509
    78.0034  78.1383  78.1995  78.6749  79.1746  79.2970  80.6832  80.7366
    81.3163  81.4094  81.8774  81.9734  82.3783  83.1137  83.1706  84.6932
    85.2843  85.4381  86.7029  87.2598  87.4306  87.8632  87.8954  88.2738
    88.8921  88.9873  89.3642  89.4066  89.4324  89.4478  89.7545  89.8491
    90.1412  90.6723  90.7186  90.8258  90.8656  90.9683  91.0203  91.1591
    91.5344  92.7694  93.0488  93.1689  93.1886  93.2094  94.2111  95.0378
    95.7775  95.8218  95.8322  96.0881  96.2778  96.2821  96.3014  96.5150
    96.5345  96.7020  97.3231  97.3794  97.4949  97.5314  97.7304  98.0348
    98.3553  98.5110  98.6366  98.7966  98.8192  99.0336  99.2215  99.3821
    99.4227  99.9941 100.1403 100.3617 100.5330 100.6778 100.8877 100.9362
   101.0563 101.1660 101.2908 101.2947 102.8364 103.3172 103.9814 103.9884
   104.3314 104.3987 104.5346 104.7804 104.9400 104.9691 105.0345 105.1453
   105.3507 105.4486 105.4725 105.5343 105.9747 105.9759 106.2421 106.3868
   106.5105 106.6970 106.7216 106.8957 107.0044 107.5339 107.8158 107.9685
   108.1007 108.3283 108.3677 108.6746 108.7254 109.0997 109.1383 109.1597
   109.2125 109.3996 109.9643 110.3922 110.4030 110.6074 111.1454 111.6729
   111.7483 111.7996 111.8380 112.2071 112.2211 112.2871 112.4228 112.7199
   112.7305 112.8178 113.1364 113.6580 114.6605 115.7403 116.0371 116.1048
   116.1212 116.2254 116.3313 116.6195 116.7074 116.9096 117.1026 117.1749
   117.4923 117.7034 117.8011 118.0243 118.2816 118.4461 118.5750 118.7012
   118.8125 118.8756 119.3089 119.7415 119.8810 120.0879 120.1393 120.4706
   120.6163 120.8076 120.9120 120.9332 120.9612 122.0053 122.3548 122.5195
   122.6139 123.1274 123.1304 123.1750 123.4372 123.5616 123.8096 123.8321
   123.8773 124.0485 124.1008 124.1586 124.2239 124.3609 124.5076 124.5134
   124.8666 125.3679 125.3736 125.4360 125.5217 125.5437 125.5902 125.6670
   126.2523 126.3268 126.4344 126.6027 127.5378 127.5536 127.7337 127.7652
   128.0425 128.3637 128.4613 128.6803 128.9242 129.2302 129.3409 130.0522
   130.4593 130.6504 130.7131 130.7933 130.9916 131.1284 131.1744 131.4634
   131.5338 131.7113 131.7967 131.8936 131.9115 131.9670 132.4037 132.5925
   132.7039 132.7978 132.8459 133.1079 133.3278 133.5230 133.8377 133.8637
   134.2180 134.2465 134.4787 134.6705 134.6966 134.7004 134.7014 134.8599
   134.8646 134.8880 135.3836 135.6935 135.7557 135.7651 136.0273 136.1019
   136.1661 136.1813 137.9813 138.0771 138.1553 138.2766 138.3752 138.5080
   138.5756 138.8799 139.1655 139.1807 139.3182 139.4941 139.5013 139.6512
   139.6852 139.7768 139.8084 139.9200 139.9876 140.0424 140.0933 140.2050
   140.3063 140.3090 140.3310 140.3706 140.8475 140.9701 141.0739 141.3379
   141.4719 141.5800 141.6087 141.6178 141.6278 143.1642 143.4125 143.7244
   143.7637 144.4225 144.4731 144.9017 144.9744 145.2115 145.2728 145.2856
   145.3562 145.5010 145.8020 145.8185 146.0415 146.3798 146.6456 146.7806
   147.1518 147.3349 147.4333 147.4884 147.5252 147.8848 147.9898 148.1926
   148.2398 148.6355 148.7979 148.8263 148.9061 149.2173 149.4354 149.5241
   149.6081 149.9175 150.0742 150.0989 150.1811 150.6459 150.7583 151.0739
   151.2573 151.3388 151.4464 152.6940 152.8569 153.0408 153.7277 153.9963
   154.1448 154.6901 154.9566 155.0563 155.3599 155.3940 155.4067 156.0054
   156.0606 156.2717 156.4102 156.7708 156.9270 156.9670 157.0643 157.2077
   157.5075 157.9258 158.0132 158.2530 158.3343 158.6985 158.9590 159.4565
   159.5793 159.6215 159.7290 160.4654 160.8586 161.0368 161.0521 161.3115
   161.4156 161.8264 161.9708 162.0946 162.1182 162.6943 162.7720 163.1799
   163.4222 164.4158 164.7323 164.7469 165.4689 165.5324 165.7180 165.7414
   165.9399 166.4595 166.8075 166.9075 167.2508 167.3533 167.3712 167.6770
   167.7854 167.8542 168.1099 168.3273 168.8310 168.8563 169.1000 169.1446
   169.3386 169.7009 170.0365 170.1117 170.4966 170.5212 170.5277 171.2835
   171.3406 173.3770 173.9633 174.1484 174.4210 174.5447 174.8325 174.8607
   174.9201 175.1004 175.2280 175.4977 175.6361 176.0855 176.6801 176.6918
   176.7627 176.9011 177.0448 177.3615 177.4266 178.1487 178.1947 178.3635
   178.5016 178.5723 178.8735 179.2201 179.2993 181.1173 181.1858 181.5616
   181.8897 181.9183 182.0348 182.3000 182.3640 182.3742 182.6790 183.0791
   183.4738 183.8690 184.0102 184.3214 184.3445 184.3665 185.1849 185.4300
   185.5424 185.6827 185.8756 186.2828 186.6366 186.6607 186.7953 188.0355
   188.4369 188.9613 189.1871 189.4971 189.6984 189.7473 189.8937 190.5358
   190.5946 190.8050 191.6443 191.7108 192.3834 192.5451 192.6996 193.2628
   193.6792 193.7824 194.0099 194.3573 194.5534 194.5840 194.5963 194.7865
   194.7923 194.8334 194.8743 195.4424 195.7239 196.5368 196.7973 197.1176
   197.4922 197.6988 197.7675 197.9812 198.1972 198.4155 198.4691 199.0384
   199.7274 199.8527 200.2484 200.7598 200.8626 201.7404 201.9844 202.0771
   202.2826 202.4184 202.9671 203.9765 204.3765 204.5752 204.7911 204.8144
   204.8592 205.0039 205.1278 205.4741 205.6651 205.8472 205.8855 206.2469
   207.0252 207.3724 207.5324 208.4040 208.4849 208.6560 208.6811 208.9135
   208.9339 208.9544 209.1588 210.3827 210.4103 210.4184 210.4843 210.6314
   211.1495 211.2177 211.3110 211.6650 211.9624 211.9819 212.1127 212.1722
   212.3484 213.0214 213.2382 213.2922 213.3689 213.5204 213.6535 213.6927
   213.7243 213.7979 213.9915 214.2205 214.3697 214.4557 214.6229 214.6407
   214.8258 214.8296 214.8723 215.1743 215.1999 215.2763 215.5135 215.5229
   215.6279 215.7322 215.8689 215.9033 215.9591 215.9696 216.0197 216.0339
   216.2421 216.2649 216.6534 216.7096 216.7372 216.8133 216.8147 216.8315
   216.8599 218.2171 218.2224 218.2583 218.3016 218.6298 218.6543 218.9275
   218.9618 220.0722 220.4292 220.5985 220.9018 220.9746 221.1265 221.2548
   221.2908 221.3489 221.3772 221.5304 221.5604 221.7064 221.7256 222.0772
   222.3715 222.5980 222.6191 222.6365 222.6370 222.7825 222.8341 222.8555
   222.8667 222.8928 223.1917 223.5141 223.5258 223.8512 223.8600 223.8939
   223.9839 224.1318 224.1393 224.8977 225.1511 225.2667 225.2681 225.3787
   225.3826 225.5993 225.6234 226.1330 226.2295 226.2566 226.3273 226.4492
   226.7790 226.9129 226.9332 227.1791 227.1801 227.2068 227.3169 227.5325
   227.6007 227.7427 227.9337 227.9655 228.0264 228.1513 228.2541 228.3419
   228.3640 228.6233 228.6457 229.1217 229.1419 229.2062 229.2175 229.3125
   229.3468 229.4237 229.5006 229.6091 229.6759 229.6919 229.7378 230.0458
   230.0982 230.1364 230.1805 230.2435 230.4159 231.1633 231.1793 231.4471
   231.5708 231.6213 231.6773 231.7130 231.9996 232.0267 232.2756 232.6059
   232.6388 232.6622 233.0489 233.1332 233.2040 233.2262 233.3158 233.3318
   233.3366 233.7077 233.7098 234.4516 234.6111 234.7103 234.7750 234.8086
   234.9129 235.0464 235.1041 235.3699 235.5274 235.6786 235.7038 235.9451
   235.9468 236.0920 236.1053 236.1135 236.1336 236.6458 236.6810 236.7757
   236.8675 237.1054 237.1970 237.2822 237.3137 237.4223 237.4824 237.6105
   237.7679 237.8933 237.9284 237.9553 237.9904 238.5425 238.5631 238.6096
   238.6515 238.6828 238.7372 238.7635 238.8165 238.8317 238.9541 239.2998
   239.3360 239.4027 239.4212 239.4554 239.5006 239.6981 239.7074 239.7222
   239.7605 239.9213 240.0340 240.0895 240.0921 240.2295 240.2425 241.2764
   241.4316 241.5103 241.5238 241.8612 241.9888 242.0137 242.0733 242.0984
   242.1476 242.3169 242.3440 242.5091 242.6355 242.6786 242.7529 242.7654
   242.8036 242.9980 243.0679 243.1625 243.2635 243.2879 243.3064 243.3551
   243.5980 243.6849 243.7662 243.7708 244.1170 244.1685 244.1896 244.2008
   244.5879 244.7283 245.3535 245.3563 245.5130 245.5272 245.8706 246.3429
   246.4203 246.4758 246.5890 246.6740 246.6781 246.7005 247.5257 247.7342
   247.8863 248.5393 248.5681 248.5704 248.6104 248.8314 248.8397 248.8496
   248.8725 248.9553 249.0488 249.1602 249.4469 249.5029 249.6348 249.6895
   249.7850 249.9886 249.9966 250.1159 250.1997 250.3203 250.9410 250.9828
   251.0458 251.2588 251.3295 251.3652 251.3687 251.3990 251.6221 251.7188
   251.7314 251.8080 251.8409 251.9577 251.9930 252.6829 252.7546 252.8365
   252.8653 252.8930 253.7295 253.8205 253.9071 254.0214 254.2325 254.2595
   254.2912 254.2960 254.9805 254.9845 255.0451 255.1562 255.6180 255.7569
   255.7588 255.7696 256.5902 256.6612 256.7861 256.8163 256.8345 256.9449
   256.9737 257.0032 257.1140 257.1219 257.1279 257.1632 257.9018 257.9860
   258.3853 258.5853 258.9484 259.0369 259.0637 259.1288 259.3641 259.4361
   259.7265 259.8120 261.0236 261.2539 261.5916 261.6806 261.8531 261.9980
   262.0509 262.1373 262.1552 262.3692 262.8429 262.8609 263.0570 263.1112
   263.1618 263.2250 264.2313 264.3600 264.5510 264.6030 264.7736 264.7739
   265.0682 265.3429 265.3700 265.4175 265.5179 265.5468 265.5791 265.7084
   265.9144 265.9773 266.2346 266.3319 266.3405 266.3683 266.6780 266.6968
   266.8539 266.9578 267.0843 267.2086 267.3638 267.3867 267.5062 267.5071
   267.8006 267.8159 268.1568 269.3912 269.4858 269.7432 269.7836 270.0916
   270.1359 270.2517 270.3298 270.4522 270.4723 270.5099 270.5432 270.5543
   270.6026 271.2185 271.2591 271.4995 271.7005 271.8369 271.8421 272.2055
   272.2199 272.3436 272.4985 272.7898 272.9003 272.9242 273.1839 273.1888
   273.2514 273.2813 273.3623 273.4461 274.3216 274.3995 274.5597 274.6814
   274.7823 274.7863 275.1081 275.1640 275.2099 275.2344 275.2430 275.2512
   275.7279 276.9484 276.9612 277.2731 277.5929 277.7898 277.8513 277.9047
   278.0989 278.6592 278.6914 278.6949 278.7415 279.5221 279.9356 280.0149
   280.0732 280.1725 280.2258 280.3391 280.4955 280.5230 280.5756 280.6232
   280.7593 280.9426 280.9444 281.1499 281.2214 281.2572 281.2694 281.2771
   281.2775 281.4122 281.4298 281.7011 281.7980 282.1810 282.2345 282.4382
   282.4661 282.4885 282.5057 282.5514 282.7703 282.7939 282.8493 282.8639
   282.8657 283.5165 283.5194 283.7176 283.8998 284.0295 284.0687 284.1652
   284.1946 284.7091 284.7214 284.7539 284.7588 284.9768 284.9968 285.0217
   285.0368 285.2233 285.4394 285.8574 285.8585 286.0232 286.0296 286.2809
   286.3135 286.3156 286.3947 286.5375 286.5894 286.7621 286.8336 287.8916
   287.9007 287.9099 288.0154 288.1099 288.1167 288.1175 288.1243 288.5199
   288.6069 288.7132 288.7367 289.0545 289.2212 289.5543 289.5761 290.6009
   290.6541 291.3142 291.5785 291.5823 291.7681 291.9001 291.9021 292.1039
   292.1340 292.2527 292.2552 292.3838 292.4388 292.7989 292.8517 292.8748
   292.8949 293.1236 293.1446 294.1936 294.2517 295.3098 295.4292 295.4465
   295.5344 295.5571 295.5819 295.7144 295.7297 296.1995 296.3067 296.3185
   296.4510 296.5021 296.5288 296.6195 296.6198 296.7150 296.7798 296.7948
   296.8028 297.2638 297.2649 297.4083 297.4322 297.4905 297.6122 297.6688
   298.0508 298.0842 298.0995 298.1041 298.3397 298.6375 298.6621 298.7768
   298.7885 298.9364 298.9556 299.1474 299.5070 299.6466 299.9029 300.0351
   300.3768 300.3878 300.4254 300.4829 300.5355 300.5381 300.9151 300.9494
   300.9712 300.9825 301.1599 301.3475 301.3602 301.4169 301.9403 301.9474
   302.1180 302.1869 302.1917 302.2246 302.3461 302.3718 302.4629 302.4714
   303.5764 303.6281 303.6394 303.6725 304.0185 304.0252 304.0442 304.0595
   304.1764 304.1864 304.3136 304.7298 304.7563 305.1086 305.2539 305.3306
   305.4208 305.7814 305.8332 306.0070 306.0106 306.1518 306.1627 306.5903
   306.7248 307.0420 307.0667 307.1226 307.2000 307.6318 307.6936 307.8412
   307.8436 307.9598 307.9645 308.1739 308.2742 308.4257 308.5179 308.5198
   308.5532 308.5847 308.5934 308.8915 308.9188 308.9258 308.9524 309.0271
   309.0443 309.0547 309.0935 309.7033 309.7211 309.7326 309.7972 312.0450
   312.0635 312.3807 312.4101 312.5053 312.5325 312.7707 312.7958 312.7977
   312.8448 312.9280 313.0341 313.2590 313.3172 314.7950 314.8917 314.9483
   314.9561 315.0789 315.1849 315.5916 315.6670 315.6890 315.7039 315.8447
   315.8958 316.3282 316.4251 316.5109 316.6830 316.6939 316.7534 316.9909
   317.0248 317.2922 317.3238 317.7236 317.8481 318.0030 318.0329 318.0707
   318.1038 318.2018 318.2919 318.3122 318.3448 318.5682 318.5881 318.8786
   318.9253 319.1967 319.3112 319.4342 319.4898 319.4976 319.5372 319.8967
   319.9129 320.0110 320.0258 320.4297 320.4486 320.5250 320.5376 320.5629
   320.5702 320.7820 320.8425 321.2497 321.2753 321.4677 321.4691 323.1931
   323.3350 323.3822 323.3999 323.7765 323.9501 324.3757 324.4844 324.5078
   324.5189 325.5411 325.7820 326.1445 326.2266 326.4548 326.4700 327.1565
   327.1707 327.2635 327.3758 327.9692 327.9868 328.1553 328.1660 328.3075
   328.3165 328.3504 328.3967 329.0650 329.0780 329.2649 329.2807 329.6375
   329.6562 329.7226 329.7397 330.0580 330.1639 330.7070 330.8162 331.0064
   331.0861 331.1940 331.3963 331.4667 331.5341 331.5631 331.6437 331.6525
   331.7276 331.8354 331.8419 332.5273 332.5902 332.6710 332.6966 332.7226
   332.7615 332.9497 332.9582 332.9754 332.9788 333.1884 333.4049 334.2712
   334.3944 335.0165 335.0628 336.0420 336.1295 336.1389 336.2112 336.2862
   336.3130 336.3757 336.3983 336.5672 336.8959 338.5353 338.6779 339.0655
   339.2661 339.2933 339.3488 339.4554 339.4765 339.4889 339.5529 339.6561
   339.7604 340.3908 340.4421 340.4436 340.4894 340.7883 340.8189 340.8413
   340.8565 341.4131 341.4321 341.4941 341.5068 342.2629 342.3485 342.6569
   342.6642 342.9073 343.1209 343.2508 343.2842 343.8092 343.8339 343.8491
   343.8943 344.0428 344.0635 345.4553 345.5378 345.7008 345.7714 346.3977
   346.5073 346.5077 346.5451 346.5715 346.6239 346.6721 346.7035 346.9460
   346.9915 347.3194 347.3304 347.3349 347.4075 347.7937 347.9261 347.9812
   348.0417 348.1407 348.1548 348.4039 348.4099 349.4082 349.4470 350.3617
   350.3932 350.4968 351.1222 351.2867 351.3169 352.0851 352.1370 352.3745
   353.2056 353.8132 353.8284 353.8295 353.8498 353.9786 354.1481 354.1799
   354.2014 354.2966 354.3547 354.8311 354.9513 354.9635 354.9761 355.0246
   355.0346 355.4920 355.4970 355.6868 355.8185 356.7409 356.7589 356.9005
   356.9346 357.2782 357.3242 357.3574 357.4130 357.4558 357.6541 358.0324
   358.0647 358.5855 358.5891 358.9446 358.9870 359.3093 359.3102 359.7981
   359.8157 359.8400 359.8742 360.8506 360.9861 361.0234 361.0746 361.6707
   361.6854 362.0580 362.1041 362.2310 362.2907 362.5567 362.6002 362.9276
   364.0798 364.2852 364.5180 364.5250 364.9390 365.1263 365.3133 365.3349
   365.3740 365.3795 365.8206 366.1109 366.5587 366.7418 366.8931 366.9018
   367.0647 367.1528 367.2861 367.3094 367.6909 367.9003 367.9064 367.9515
   368.0114 368.3160 368.4950 368.5356 368.8763 368.9090 369.0141 369.0421
   369.1994 369.2116 369.2352 369.2525 369.3596 369.3802 369.3885 369.4323
   370.0139 370.0842 370.2184 370.2240 370.2579 370.5514 370.6702 370.6871
   370.7761 370.8059 370.9532 370.9832 371.0288 372.4260 372.4798 372.5848
   372.7045 372.8234 372.8356 373.0884 373.2952 373.3552 373.5460 373.5680
   373.6917 373.9235 373.9265 374.0243 374.0806 374.1990 374.2264 374.4623
   374.4879 374.4911 374.4944 374.6832 375.0018 375.0915 375.3751 375.3777
   375.4431 375.4787 375.5499 375.9165 375.9718 376.2949 376.4772 376.5506
   376.5784 376.6402 376.9773 377.8370 377.8433 378.1530 378.1897 378.2163
   378.2876 378.5686 378.5728 379.2155 379.3309 379.9029 379.9132 379.9926
   380.0090 380.0992 380.1375 381.5383 381.6041 382.1550 382.2021 382.2935
   382.2980 383.1520 383.4707 383.7696 383.9889 384.1083 384.1092 384.4583
   384.4584 384.5019 384.5212 384.5724 384.5898 384.6295 384.7147 384.7491
   384.7574 384.8714 384.8892 385.0309 385.0984 385.3116 385.3708 385.3785
   385.4051 385.4440 385.4599 386.1368 386.1662 386.3016 386.3046 386.3270
   386.3643 386.5817 386.6148 386.6916 386.7010 387.0067 387.1044 387.3245
   387.3339 387.7518 387.8251 387.9216 387.9268 388.1877 388.2642 388.6702
   388.7747 388.8399 388.8417 389.2898 389.4508 389.4559 389.4647 389.5169
   389.5950 389.7561 389.7913 389.8639 389.9150 390.0071 390.0874 390.1440
   390.1664 390.1676 390.1957 390.2679 390.2974 390.9717 391.4146 391.4268
   391.6706 391.7871 391.9700 391.9708 392.2881 392.3683 392.4696 392.5295
   392.5766 392.5843 392.8095 392.8543 392.9866 392.9897 393.2146 393.8425
   393.8880 393.8893 393.8946 394.0631 394.2156 394.6928 394.7473 395.8277
   395.8321 395.9386 395.9551 396.0829 396.1120 396.1261 396.1333 396.1656
   396.1929 396.3840 396.4118 397.2555 397.4121 397.4246 397.5377 397.6097
   397.7195 397.7388 397.8343 397.8508 397.8828 398.5368 398.5908 398.6951
   398.7558 399.1105 399.1144 399.1169 399.1597 399.3794 399.8550 399.9611
   399.9796 399.9924 400.1229 400.2755 400.3431 400.4298 400.4692 400.5594
   400.5617 400.5665 400.6394 400.6816 400.7433 400.7624 400.7738 400.8016
   400.8412 401.0855 401.2025 401.3476 401.3477 401.3660 401.3774 401.3806
   402.0906 402.0995 402.1085 402.1150 402.1387 402.2192 402.3074 402.3415
   402.4864 402.5931 402.6900 402.6990 402.8815 402.9113 403.4324 403.5103
   403.5478 403.5908 403.6002 403.9074 403.9174 404.0334 404.0484 404.2103
   404.3166 404.3300 404.3303 404.6079 404.8441 404.8669 404.8677 404.8858
   404.9263 404.9267 404.9904 405.2432 405.2451 405.2902 405.3536 405.4361
   405.4824 405.5429 405.5549 405.7184 405.8030 405.8747 405.9416 405.9854
   406.0342 406.2012 406.3122 406.3232 406.4071 406.4153 406.4163 406.4453
   406.9441 406.9557 407.5645 407.5674 407.6172 407.6307 407.9125 407.9615
   407.9638 407.9694 408.0272 408.4347 408.9294 408.9400 408.9454 409.0460
   409.1058 409.1114 409.2550 409.2647 409.3502 409.3648 409.4624 409.5188
   409.5248 409.5444 409.6055 409.6201 410.2149 410.3134 410.5251 410.5833
   410.6052 410.6189 410.9678 410.9910 411.0083 411.0196 411.2662 411.2740
   411.4265 411.4287 411.4305 411.4402 411.4683 411.8631 411.8685 411.8695
   411.8709 411.9998 412.0065 412.1317 412.2942 412.2971 412.4183 412.4706
   413.0902 413.1061 413.1140 413.1332 413.1821 413.3061 413.3073 413.3939
   413.4005 413.6068 413.6927 413.7177 413.7275 413.8653 413.8779 414.1970
   414.2267 414.3857 414.4180 414.4233 414.4457 414.6619 414.6685 414.6697
   414.6753 414.9985 415.0595 415.3102 415.3248 415.5617 415.5735 415.5850
   415.5881 415.7067 415.7884 416.0408 416.0437 416.1590 416.2099 416.5172
   416.5310 416.5847 416.6370 416.7175 416.7814 416.8884 416.9608 417.0999
   417.1175 417.4284 417.4495 417.4562 417.4785 417.5658 417.5699 418.5996
   418.6063 418.6070 418.6404 418.9274 418.9367 419.2422 419.2770 419.3167
   419.3207 419.3298 419.3429 419.5296 419.5601 419.5745 419.5748 419.6307
   419.6307 419.7874 419.7938 420.2005 420.2113 420.2170 420.2244 421.6460
   421.6807 421.8458 421.9575 422.1763 422.2220 422.4695 422.5051 422.5310
   422.5436 422.6155 422.6272 422.6461 422.6998 422.6999 422.7139 422.7562
   422.7612 422.7661 422.7678 423.2276 423.3249 423.3745 423.3745 423.7636
   423.7778 423.9109 423.9127 424.0291 424.0944 424.2343 424.2578 424.5433
   424.5583 424.8584 424.8662 424.8790 424.9069 424.9875 425.0161 425.0226
   425.0481 425.6269 425.6436 426.0200 426.0333 426.1769 426.1954 426.2366
   426.2374 426.7982 426.8044 426.8409 426.8873 427.0865 427.0871 427.0974
   427.0985 427.6126 427.6253 427.6271 427.6430 427.6699 427.9498 427.9576
   427.9618 427.9683 428.2736 428.2913 428.3169 428.8954 429.0425 429.0598
   429.0723 429.1071 429.2515 429.2631 429.2749 429.2754 429.3895 429.4010
   429.4113 429.4235 429.7514 429.7611 429.9053 430.0097 430.2085 430.2329
   430.2756 430.5445 430.5461 430.6306 430.6621 430.7049 430.7198 430.7740
   430.8009 430.9942 430.9991 431.1214 431.1222 431.1820 431.1895 431.1987
   431.2112 431.4853 431.4862 431.9071 431.9130 432.0304 432.0386 432.5735
   432.5793 432.6682 432.6685 432.8261 432.8580 432.8614 432.8633 433.1175
   433.1267 433.1487 433.1672 433.2817 433.2839 433.2898 433.3034 433.7236
   433.7310 434.2128 434.2257 434.2334 434.2469 434.6385 434.6429 434.6628
   434.6687 434.7706 435.0542 435.1011 435.1094 435.3409 435.3474 435.4726
   435.5091 435.5114 435.5250 435.5845 435.6025 435.8790 435.9032 435.9202
   435.9310 435.9321 435.9369 436.0270 436.0797 436.0904 436.0978 436.1603
   436.1610 437.0786 437.0916 437.2709 437.3100 437.3204 437.3320 437.3839
   437.4028 437.4089 437.4750 438.0108 438.0444 438.0552 438.0579 438.0770
   438.0860 438.0937 438.1069 438.6532 438.7383 439.1848 439.2001 439.2070
   439.2102 439.3186 439.3313 439.3440 439.3460 439.3568 439.3680 439.4760
   439.4767 439.6584 439.6867 440.1814 440.2593 440.3096 440.3154 440.5193
   440.5466 440.5513 440.5599 440.9818 440.9939 441.0855 441.0868 441.2453
   441.2471 441.2571 441.2592 442.2906 442.3497 442.4707 442.5201 442.7296
   442.7417 442.8458 442.8763 443.0079 443.0585 443.0587 443.0735 443.2403
   443.2458 443.2774 443.2917 443.4613 443.4671 443.4732 443.4739 443.5532
   443.5728 443.8906 443.8922 443.8928 443.8966 445.0958 445.1546 445.1837
   445.2005 445.2448 445.2868 445.3768 445.3885 445.8983 445.9067 445.9380
   445.9855 446.0112 446.0170 446.0312 446.0492 446.0974 446.1013 446.3415
   446.3429 446.3444 446.3958 446.4167 446.4223 446.4280 446.4307 446.4726
   446.4752 446.4921 446.4935 446.7969 446.7972 448.2915 448.3342 448.3973
   448.4055 448.7968 448.8499 449.3724 449.3807 449.7893 449.8150 449.8201
   449.8242 450.2477 450.2678 450.3368 450.3385 450.3495 450.3951 451.0373
   451.0439 451.1789 451.1971 451.2668 451.2722 451.4264 451.4348 451.4357
   451.4456 451.5313 451.5415 451.6102 451.6198 452.1859 452.2017 452.2039
   452.2174 452.3471 452.3484 452.4853 452.5373 453.0620 453.0677 453.0957
   453.1655 453.8067 453.8392 453.8588 453.8600 454.0321 454.0404 454.0979
   454.1000 454.6604 454.6622 454.6718 454.6849 455.3465 455.3618 455.3650
   455.3794 456.6111 456.6441 456.6821 456.7053 456.8355 456.8728 456.8736
   456.8805 457.0423 457.0577 457.3372 457.4043 457.7011 457.7047 457.8204
   457.8274 457.8284 457.8473 458.0964 458.1542 458.1679 458.2911 458.5561
   458.5600 458.5713 458.5973 458.8026 458.8097 459.2167 459.2202 459.2289
   459.2424 459.3667 459.3736 459.3829 459.3980 460.4587 460.4909 460.7904
   460.7931 461.1578 461.1706 461.2282 461.2313 461.3279 461.3548 461.6250
   461.6558 461.6691 461.6757 461.8919 461.9368 462.1717 462.1773 462.2620
   462.2665 462.4743 462.5224 462.5533 462.5537 462.9593 462.9805 463.1692
   463.3754 463.3890 463.9467 463.9682 463.9691 463.9929 464.4484 464.4948
   464.5074 464.5227 464.6160 464.6537 464.6594 464.6678 464.9955 465.0011
   465.0078 465.0148 465.2984 465.3900 465.9919 465.9942 466.2557 466.2732
   466.2743 466.2808 466.5486 466.5800 466.6902 466.7036 467.0054 467.0132
   467.8137 467.9137 468.3622 468.4189 468.5864 468.5873 468.6444 468.7945
   468.8479 468.8489 468.9352 468.9411 469.2969 469.3057 469.3827 469.4311
   469.7191 469.7310 469.9365 469.9375 469.9860 469.9968 470.3337 470.3404
   471.3175 471.3498 471.3563 471.3693 471.3945 471.6422 471.7946 471.7972
   472.4479 472.4480 472.4595 472.4657 472.6527 472.6649 472.6845 472.6990
   473.1990 473.3166 473.3362 473.3446 473.3473 473.4452 473.6594 473.6862
   473.8900 473.9145 474.0130 474.1574 474.4592 474.4773 474.7317 474.8062
   475.1363 475.1491 475.1595 475.1909 475.3178 475.3530 476.0629 476.0750
   476.1187 476.1267 477.3111 477.3585 477.3671 477.3733 477.7459 477.7668
   477.8169 477.8190 477.8196 477.8338 478.2036 478.2146 478.2196 478.2206
   478.2306 478.2372 479.1609 479.2855 479.7827 479.7884 480.4599 480.5464
   480.6516 480.6539 481.0510 481.0837 481.0933 481.1125 481.4597 481.4731
   481.9765 481.9778 481.9924 481.9992 482.0625 482.0790 482.1643 482.1825
   482.2721 482.2867 482.6530 482.6641 482.6705 482.6780 483.0202 483.0775
   483.2256 483.2323 483.7875 483.8056 484.3297 484.3844 484.3915 484.3942
   484.8549 484.8817 484.9088 484.9091 485.1038 485.1653 485.1862 485.5011
   485.5092 485.7524 485.8016 485.8456 485.8769 486.0697 486.0734 486.3424
   486.3559 486.4035 486.4104 486.6230 486.6284 486.8439 486.8505 487.3183
   487.3187 487.3602 487.3684 488.3802 488.4073 488.8377 488.8477 489.8622
   489.9290 489.9337 489.9805 490.3982 490.4208 490.4929 490.5185 490.6527
   490.8066 490.8695 490.9182 491.1060 491.1165 491.2010 491.4139 491.4183
   491.7025 491.7221 491.8592 491.9621 491.9860 492.0189 492.1888 492.2014
   492.2369 492.2533 492.2551 492.2751 492.2855 492.2902 492.6358 492.6857
   492.7142 492.7143 492.9255 492.9308 492.9321 492.9377 493.2203 493.3433
   493.5810 493.6263 493.7611 493.7637 493.7771 493.7958 493.8081 493.8141
   493.9399 493.9511 494.3495 494.3517 494.4920 494.5022 495.1274 495.4532
[...]
   415.9825 415.9830 416.0888 416.1243 416.1381 416.1648 416.1758 416.2264
   416.2431 416.2457 416.2471 416.2666 416.4566 416.5012 416.5935 416.6065
   416.6301 416.6319 416.6322 416.6414 416.6432 416.6594 416.6596 416.6694
   417.4081 417.4084 417.6066 417.6349 417.7021 417.7078 417.7155 417.7161
   417.9765 417.9869 417.9900 417.9904 417.9923 417.9945 421.5369 421.5608
   421.5785 421.6080 421.6085 421.6468 421.8560 421.9316 422.6206 422.8107
   422.8386 422.8561 422.8611 422.8700 422.9002 422.9220 422.9297 422.9303
   423.6033 423.6270 423.7177 423.7861 423.8866 423.8916 423.8960 423.8971
   423.9163 423.9583 424.0472 424.1029 424.2932 424.2961 424.3104 424.7438
   424.7482 424.7499 424.7515 424.7562 424.8235 428.6658 428.9658 428.9677
   429.0339 429.0684 429.1293 429.5147 429.5267 429.5605 429.5793 429.5824
   429.6442 429.8243 429.8943 429.9242 429.9355 429.9514 429.9581 429.9736
   429.9819 429.9994 430.0583 430.0685 430.0858 430.6290 430.6351 430.6847
   430.6886 430.6890 430.6934 431.4930 431.4994 431.5324 431.5405 431.5855
   431.5888 431.7274 431.7451 431.7726 431.7838 431.8367 431.8457 431.9772
   431.9963 432.0013 432.0085 432.1478 432.1539 432.9790 432.9816 432.9953
   432.9967 433.0910 433.0999 434.4397 434.4546 434.4579 434.4662 434.4791
   434.5429 434.6857 434.6875 434.6892 434.6953 434.6958 434.7079 436.0293
   436.1955 436.2598 436.2616 436.2683 436.2899 436.3952 436.5150 436.5488
   436.8689 436.8804 436.8850 436.9188 436.9266 436.9453 437.8467 437.8532
   437.8571 437.8706 437.9346 437.9358 437.9460 437.9501 437.9550 438.0982
   438.1074 438.1336 440.6490 440.7925 441.1876 441.2147 441.4901 441.4918
   441.6103 441.6137 441.6367 441.6539 442.5296 442.5309 445.0062 445.0907
   445.1189 445.1447 445.1661 445.2961 445.7778 445.7895 445.8247 445.8356
   445.9338 445.9545 446.1593 446.1622 446.1627 446.1688 446.1924 446.2355
   446.5214 446.5220 446.5295 446.5342 446.5516 446.5558 446.7919 446.8008
   446.8057 446.8057 446.8083 446.8096 448.0288 448.1362 448.3596 448.3848
   448.6065 448.6115 449.2252 449.2350 449.2461 449.2575 449.2598 449.3231
   450.1580 450.1610 450.1629 450.1704 450.1760 450.1762 450.7365 450.8332
   450.8788 450.9302 450.9399 450.9490 450.9885 451.0066 451.0125 451.8913
   451.8936 451.9160 451.9440 451.9524 451.9621 453.4087 453.4146 453.4509
   453.4841 453.4880 453.5549 453.7943 453.7950 453.7970 453.8035 453.8334
   453.8375 454.4573 454.4642 454.4694 455.6258 455.6336 455.6476 455.6700
   455.6805 455.7008 455.7245 455.7290 455.7331 455.7609 455.7634 455.7907
   455.7978 455.8012 455.8148 455.8242 455.9537 455.9670 456.5295 456.5388
   456.5511 456.5674 456.6755 456.6773 458.2756 458.2800 458.3535 459.0056
   459.0178 459.0255 459.6015 459.6018 459.6042 459.6834 459.6881 459.6914
   459.7328 459.7328 459.7371 459.8463 459.8506 459.8508 460.8153 460.8217
   460.8697 460.8761 460.9007 460.9079 461.0864 461.0906 461.1066 461.1776
   461.2003 461.2129 461.2216 461.2668 461.2768 461.2773 461.3151 461.3347
   461.4071 461.4415 461.4761 461.4908 461.5079 461.5126 462.0958 462.0962
   462.0975 462.1217 462.1249 462.1449 462.7681 462.7720 462.7887 462.7991
   462.8002 462.8066 463.1336 463.1412 463.1474 463.1522 463.1548 463.1744
   463.1772 463.1911 463.1948 463.2193 463.2221 463.2301 463.4698 463.4768
   463.4770 463.5359 463.5363 463.5377 464.0002 464.0024 464.0127 464.0195
   464.0197 464.0242 465.7458 465.7705 465.7914 465.8026 465.8056 465.8159
   465.8267 465.8302 465.8503 465.8567 465.8600 465.8680 466.2661 466.2674
   466.2677 466.2927 466.2933 466.3021 466.5819 466.6452 466.6654 466.6692
   466.6887 466.6897 466.6920 466.6931 467.1116 467.1136 468.3309 468.3361
   470.0965 470.0987 470.1071 470.1147 470.1196 470.1498 470.5864 470.6004
   470.6080 470.6379 470.6380 470.6410 472.0724 472.4405 472.4484 472.4547
   472.6504 472.6526 472.9740 472.9917 473.0651 473.0834 473.1228 473.1592
   473.4945 473.4985 473.6002 473.6073 473.6567 473.6703 473.7522 473.7605
   473.8021 473.8101 473.9668 473.9699 474.4385 474.4460 474.4461 474.4468
   474.5428 474.5468 474.7271 474.7355 474.7839 474.7862 474.7890 474.8067
   475.2766 475.3092 475.3261 475.3760 475.3764 475.3839 476.2908 476.3089
   476.4009 476.4171 476.4394 476.4840 476.5021 476.5301 476.5373 476.5466
   476.5493 476.5537 477.5591 477.5610 477.5937 477.5985 477.6058 477.6345
   477.6955 477.6977 477.7102 477.7275 477.7618 477.7664 477.9526 477.9575
   477.9582 477.9759 477.9820 477.9892 478.7016 478.7067 478.7086 478.7099
   478.7116 478.7193 479.9140 479.9868 479.9989 480.0111 480.1655 480.1859
   480.1958 480.2313 480.2391 480.2493 480.2549 480.2653 480.3809 480.3819
   480.3849 480.3893 480.3917 480.3926 480.8369 480.8500 480.8538 480.8657
   480.8757 480.8907 480.9027 480.9590 480.9683 480.9711 480.9897 480.9945
   483.5833 483.5907 483.5948 483.6011 483.6020 483.6226 486.3622 486.3933
   486.5254 486.5360 486.5409 486.5422 486.9160 487.0634 487.0903 487.1907
   487.1934 487.2009 487.7671 487.8296 488.1485 488.1845 488.1884 488.2054
   488.2075 488.2365 488.2421 488.2597 488.2618 488.2727 490.4049 490.6140
   491.7687 492.3233 492.6963 492.6974 492.7554 492.7797 492.8963 492.9406
   492.9509 493.1262 493.2074 493.3862 493.4183 493.4269 493.5043 493.6576
   493.6683 493.7023 493.7092 493.7319 493.7489 493.7634 493.7921 493.8399
   493.9082 493.9568 494.0052 494.0113 494.0279 494.0660 494.0757 494.1033
   494.1629 494.1842 494.1902 494.2133 494.2167 494.2428 494.2810 494.2893
   494.2927 494.4730 494.5378 494.5824 494.5898 494.5945 494.6063 494.7422
   494.7550 494.7708 494.7710 494.7738 494.7780 494.9628 494.9744 495.1367
   495.2022 495.4966 496.0182 496.0763 496.1811 496.1838 496.2109 496.2110
   496.2350 496.2595 496.4446 496.8443 496.8672 496.8729 496.8735 496.8809
   496.8835 498.6851 498.6866 498.6898 498.6898 498.6900 498.7081 499.3499
   499.3742 499.5279 499.5340 499.8082 499.8090 500.5041 500.5118 500.5354
   500.5759 500.5917 500.5980 500.6547 500.6575 500.6604 500.6718 500.6791
   500.6804 501.4616 501.4701 501.4711 501.5293 501.5426 501.5458 502.1407
   502.1410 502.1476 502.2728 502.2778 502.2781 504.8206 504.9641 504.9750
   504.9780 505.0928 505.1051 505.3297 505.3366 505.3969 505.4096 505.4108
   505.4293 506.3892 506.3934 506.4001 506.4023 506.4949 506.4978 509.0832
   509.1101 509.1134 509.1235 509.1290 509.1968 509.8271 509.8568 509.8722
   509.9018 509.9239 509.9880 510.0301 510.0454 510.0500 510.0642 510.0650
   510.0801 510.6259 510.6279 510.6312 510.7444 510.7487 510.7539 511.9371
   511.9481 511.9514 511.9606 511.9684 512.0232 512.1636 512.1682 512.1748
   512.1773 512.1839 512.1863 513.6194 513.6201 513.6298 513.6981 513.6987
   513.7024 513.7122 513.7196 513.7453 513.7528 513.7671 513.7851 515.2918
   515.3629 515.3802 515.3830 515.4249 515.4291 515.5492 515.5505 515.6238
   515.6268 515.6364 515.6412 516.5465 516.5645 516.5814 516.8505 516.9045
   516.9228 517.0174 517.0290 517.0744 517.6157 517.6243 517.6446 517.6494
   517.6536 517.6606 519.2427 519.2923 519.2925 519.3477 519.3486 519.3559
   519.3843 519.3879 519.5963 519.6146 519.6541 519.6672 520.0511 520.0621
   520.0716 520.1579 520.1581 520.1638 520.4839 520.4942 520.5519 520.5558
   520.6048 520.6055 520.9624 520.9673 521.1471 521.1476 521.9329 521.9505
   522.2539 522.3198 522.3213 522.6083 522.6204 522.6304 522.7516 522.7573
   522.7736 523.5377 523.5393 523.5662 523.5951 523.5976 523.6005 523.6180
   523.6206 523.6220 523.7483 523.7531 523.7538 523.7664 523.7703 523.7708
   523.7749 523.7781 523.7783 524.4767 524.4891 524.7127 524.9033 524.9066
   524.9192 524.9846 524.9888 524.9904 525.0259 525.0278 525.0298 525.0815
   525.0859 525.0912 525.0995 525.1023 525.1079 525.4712 525.4903 525.7394
   525.7988 525.8906 525.8955 525.9069 526.0014 526.0463 526.0777 526.0962
   526.1053 526.1258 526.3663 526.3699 526.5718 526.5772 526.5898 526.6743
   526.6787 526.7365 527.0292 527.0520 527.0751 527.2232 527.2232 527.2363
   527.2486 527.2506 527.2596 527.2942 527.2985 527.3026 527.3113 527.3125
   527.3213 527.4772 527.4788 527.4822 527.6199 527.6224 527.6236 527.6256
   527.6463 527.6625 527.7815 527.8006 527.8008 527.8014 527.8053 527.8124
   528.4719 528.4781 528.4809 528.4810 528.4840 528.4988 529.2929 529.2960
   529.2982 529.3081 529.3149 529.3695 529.6688 529.6824 529.7012 530.0250
   530.0283 530.0297 530.0681 530.0888 530.0892 530.3245 530.3271 530.3408
   530.3645 530.3741 530.3997 530.4079 530.4255 530.4270 530.4749 530.4990
   530.5000 530.5169 530.5273 530.5327 530.5461 530.5502 530.5602 530.5615
   530.5643 530.5937 530.6459 530.6479 530.6577 530.6628 530.6647 530.6733
   530.9836 530.9845 531.0525 531.0675 531.2355 531.2365 531.4920 531.5053
   531.5426 531.9769 531.9803 531.9991 532.0062 532.1355 532.1356 534.2497
   534.2543 534.2545 534.3513 534.3526 534.3614 534.3776 534.3798 534.3801
   534.3855 534.3910 534.3930 534.4117 534.4149 534.4231 534.6606 534.6624
   534.6747 537.0301 537.1196 537.1279 537.1566 537.1583 537.1672 537.4968
   537.5053 537.5847 537.5933 537.7031 537.7050 537.8591 537.8607 537.9150
   537.9189 537.9662 537.9667 538.9140 538.9144 538.9222 539.0163 539.0342
   539.0441 539.0462 539.0527 539.0797 539.0860 539.0882 539.0914 539.0999
   539.1000 539.1079 539.1739 539.1874 539.1993 540.2188 540.2258 540.2308
   540.2312 540.2365 540.2724 541.0171 541.0200 541.0225 541.0292 541.0298
   541.0406 542.0082 542.0236 542.0393 542.0451 542.0526 542.1081 542.1395
   542.1455 542.1526 542.1601 542.1632 542.1683 543.6228 543.6971 543.7085
   543.7261 543.7377 543.7635 543.9064 543.9357 543.9394 543.9609 543.9988
   543.9995 544.4002 544.4061 544.4079 544.5171 544.5180 544.5291 544.5408
   544.5455 544.5486 544.6033 544.6093 544.6157 544.6301 544.6450 544.6559
   544.6596 544.6617 544.6660 544.7272 544.7337 544.7400 544.7438 544.7475
   544.7521 544.9225 544.9251 544.9273 544.9402 544.9613 544.9647 548.4749
   548.4831 548.4899 548.6510 548.6892 549.1510 549.1518 549.1765 549.1927
   549.1934 549.4369 549.4422 549.4432 549.4807 549.4814 549.5085 549.7044
   549.7129 549.7147 549.7212 549.7221 549.7314 550.3498 550.3529 550.7773
   550.7787 550.8307 550.8362 550.8402 550.8525 550.8592 550.8635 550.8790
   550.8918 550.9058 550.9066 550.9077 550.9081 550.9311 551.1809 551.1854
   551.1877 551.9046 551.9109 551.9137 551.9177 551.9185 551.9347 552.0313
   552.0359 552.0432 552.0492 552.0546 552.0833 552.6664 552.6698 552.6704
   552.6737 552.6746 552.6782 553.2246 553.2516 553.3953 553.4000 553.7291
   553.7302 554.6085 554.6127 554.6514 554.8053 554.8102 554.8140 555.5863
   555.5869 555.5892 555.6074 555.6093 555.6102 555.7378 555.7381 555.7426
   555.7626 555.7634 555.7666 556.8601 556.8709 556.9080 556.9259 556.9390
   556.9443 556.9476 556.9492 556.9504 557.0366 557.0408 557.0415 557.2505
   557.2693 557.2766 557.3336 557.3645 557.3995 557.4048 557.4219 557.4374
   557.4537 557.4574 557.4603 557.4895 557.4929 557.5626 557.5630 557.7428
   557.7637 557.9436 557.9469 557.9530 557.9587 557.9607 557.9680 558.0203
   558.0298 558.0340 558.0362 558.0413 558.0430 558.0490 558.0562 558.0574
   558.0637 558.0646 558.0711 558.0989 558.1060 558.1244 558.1248 558.1604
   558.1642 558.5574 558.5586 558.5639 558.5724 558.7104 558.7116 559.2628
   559.2654 559.2661 559.2683 559.2684 559.2745 559.3899 559.3916 559.3916
   559.4181 559.4196 559.4246 560.3256 560.3336 560.3424 560.3436 560.3543
   560.4007 560.6135 560.6164 560.6258 560.6291 560.6310 560.6346 562.1399
   562.1451 562.1453 562.1469 562.1477 562.1886 562.4036 562.4048 562.4053
   562.4182 562.4236 562.4270 562.4637 562.4664 562.4705 562.4851 562.4887
   562.4892 562.9585 562.9631 562.9648 562.9675 562.9678 562.9713 564.0951
   564.0997 564.0997 564.1068 564.1153 564.1589 564.8598 564.8603 564.8631
   564.8669 564.8719 564.8937 565.5580 565.5635 565.5667 565.5713 565.5744
   565.6170 565.7657 565.7669 565.7736 565.7844 565.8212 565.8224 565.8573
   565.8578 565.8927 565.9027 565.9047 565.9085 566.3413 566.3455 566.3462
   566.3524 566.3596 566.3635 566.5943 566.5961 566.5985 566.6028 566.6062
   566.6065 568.6061 568.6866 568.6927 568.7010 568.7022 568.7357 569.5374
   569.5396 569.5460 569.5461 569.5512 569.5556 569.7510 569.7567 569.7577
   569.7657 569.7706 569.7722 570.0292 570.0362 570.0391 570.0548 570.0797
   570.0845 570.9811 570.9857 570.9957 570.9990 570.9990 571.0224 571.1340
   571.1404 571.1423 571.1482 571.1502 571.1520 573.4484 573.4506 573.4625
   573.4664 573.4763 573.5411 573.5740 573.5810 573.5864 573.5868 573.5944
   573.6010 574.3296 574.3297 574.3301 574.3304 574.3339 574.3475 574.3801
   574.3859 574.3897 574.3924 574.4023 574.4027 574.4163 574.4199 574.4203
   574.4213 574.4245 574.4387 576.2529 576.3162 576.3649 576.3675 576.3685
   576.3704 576.5372 576.5388 576.5396 576.5406 576.5426 576.5635 576.7446
   576.7492 576.7503 576.7626 576.7628 576.7660 577.2792 577.2841 577.2857
   577.2864 577.2937 577.3193 577.5496 577.5708 578.0096 578.0131 578.0779
   578.0794 578.0827 578.0855 578.0876 578.0977 579.1960 579.1964 579.4724
   579.4744 579.4804 579.4986 579.5008 579.5037 580.9444 580.9807 580.9879
   580.9918 581.0048 581.0450 581.3676 581.3740 581.4870 581.4875 581.8471
   581.8483 582.0327 582.0397 582.0426 582.0427 582.0428 582.0503 582.6868
   582.6961 582.6977 582.6980 582.7060 582.7343 582.8109 582.8119 582.8171
   582.8293 582.8343 582.8445 583.6830 583.6858 583.6913 583.6917 583.6944
   583.7013 583.7029 583.7062 583.7107 583.7197 583.7252 583.7409 583.8066
   583.8131 583.8827 583.8877 583.8916 583.8925 583.8928 583.8988 583.9106
   583.9325 583.9408 583.9474 584.2100 584.2118 584.2140 584.2216 584.2297
   584.2367 585.1772 585.1790 585.2979 585.3070 585.4251 585.4280 585.9106
   585.9144 585.9342 585.9384 586.0704 586.0706 589.5348 589.5382 589.5506
   589.5629 589.5841 589.6767 589.7346 589.7501 589.7787 589.8087 589.8324
   589.8481 589.8906 589.8950 589.9596 589.9670 589.9741 589.9744 590.0495
   590.0522 590.0541 590.0542 590.0732 590.0737 590.6954 590.7052 590.7070
   590.7092 590.7107 590.7145 590.7224 590.7294 590.7314 590.7388 590.7400
   590.7406 591.2522 591.2573 591.2599 591.2606 591.2668 591.2694 591.9316
   591.9354 591.9376 591.9393 591.9396 591.9458 593.7360 593.7368 593.7390
   593.7400 593.7453 593.7807 593.8134 593.8177 593.8191 593.8259 593.8333
   593.8350 593.8508 593.8584 593.8642 593.8643 593.8660 593.8821 594.9780
   595.0192 595.0196 595.0288 595.0334 595.0388 595.8410 595.8446 595.8654
   595.8787 595.8947 595.8972 597.6507 597.6513 597.6566 597.6575 597.6590
   597.6924 597.8705 597.8757 597.8808 597.8899 597.8900 597.8966 600.8394
   600.8655 600.8688 600.8733 600.8739 600.9394 601.3292 601.3341 601.3382
   601.3421 601.3457 601.3484 601.5642 601.5707 601.5775 601.5796 601.5837
   601.6033 602.1330 602.1371 602.1461 602.1493 602.1498 602.1499 604.3613
   604.3771 604.3851 604.3873 604.4003 604.4445 604.4494 604.4651 604.4772
   604.4963 604.5211 604.5352 604.5772 604.5874 604.5986 604.6074 604.6114
   604.6146 605.7406 605.7431 605.7473 605.7502 605.7536 605.7764 606.2548
   606.2555 606.2556 606.2592 606.2619 606.2845 606.5259 606.5292 606.5372
   606.5450 606.5465 606.5639 606.6382 606.6437 606.6440 606.6454 606.6467
   606.6515 606.8767 606.9406 607.5531 607.5594 607.9356 607.9406 607.9498
   607.9574 607.9724 608.0015 608.0582 608.0607 608.0611 608.0677 608.0777
   608.0853 608.4003 608.4104 608.4158 608.4196 608.4232 608.4336 608.5421
   608.5443 608.6103 608.6122 608.6439 608.6474 608.8429 608.8475 610.3329
   610.3340 610.4064 610.4098 610.7947 610.7975 611.4117 611.4234 611.4249
   611.4269 611.4289 611.4448 611.6440 611.6488 611.6501 611.6510 611.6531
   611.6556 613.0818 613.0826 613.3084 613.3228 613.4487 613.4493 614.0214
   614.0250 614.0525 614.0563 614.1831 614.1835 615.2617 615.2757 615.3198
   615.3246 615.3319 615.3547 615.4874 615.4943 615.5340 615.5351 615.5415
   615.5430 616.1656 616.1774 616.1987 616.2049 616.2076 616.2089 616.2594
   616.2609 616.2719 616.2739 616.2760 616.2868 616.5418 616.5486 616.5555
   616.5581 616.5606 616.5660 621.0128 621.0136 621.0174 621.0362 621.0440
   621.0862 621.4764 621.5251 621.5305 621.5345 621.5457 621.5503 621.6300
   621.6361 621.6736 621.6772 621.7046 621.7090 621.8806 621.8928 621.8952
   621.8958 621.9058 621.9155 622.3549 622.3582 622.3737 622.3809 622.4557
   622.4570 622.4691 622.4766 622.5155 622.5210 622.5224 622.5241 622.8682
   622.9336 622.9406 623.0477 623.1872 623.3852 624.5601 624.5627 624.5642
   624.5667 624.5671 624.5822 625.5468 625.5520 625.5549 625.7089 625.7111
   625.7159 625.7161 625.7196 625.7277 625.8754 625.8768 625.8869 626.5098
   626.5149 626.5171 626.5199 626.5226 626.5250 626.5309 626.5315 626.5378
   626.5413 626.5420 626.5468 627.4604 627.4605 627.4614 627.4623 627.4662
   627.4763 628.5534 628.5687 628.5782 628.5930 628.5952 628.6103 628.6244
   628.6259 628.6386 628.6471 628.6494 628.6582 628.6760 628.6774 628.6812
   628.6818 628.6826 628.7004 632.9761 633.0208 633.0341 633.0725 633.1332
   633.1388 633.1574 633.1581 633.2954 633.2991 633.3164 633.3211 633.8391
   633.8421 633.9222 633.9245 633.9310 633.9319 634.0352 634.0458 634.0474
   634.0518 634.0853 634.0872 636.4518 636.4527 636.4538 636.5058 636.5085
   636.5322 636.6551 636.6577 636.6616 636.7042 636.7101 636.7110 637.1824
   637.1960 637.2095 637.2121 637.2158 637.2216 637.2280 637.2792 637.8415
   637.8443 638.0112 638.0135 638.0145 638.0148 638.0205 638.0248 638.9806
   638.9813 639.9127 639.9232 639.9379 639.9418 640.4729 640.4772 641.5434
   641.5447 641.5461 641.5693 641.5815 641.6370 641.6431 641.6728 641.6801
   641.6966 641.7015

     Writing output data file BN.save/
 
     init_run     :      0.09s CPU      0.12s WALL (       1 calls)
     electrons    :  79451.36s CPU  79920.94s WALL (       1 calls)

     Called by init_run:
     wfcinit      :      0.00s CPU      0.00s WALL (       1 calls)
     wfcinit:atom :      0.02s CPU      0.02s WALL (       6 calls)
     wfcinit:wfcr :    649.32s CPU    658.21s WALL (       6 calls)
     potinit      :      0.01s CPU      0.03s WALL (       1 calls)
     hinit0       :      0.06s CPU      0.06s WALL (       1 calls)

     Called by electrons:
     c_bands      :  79451.33s CPU  79920.41s WALL (       1 calls)
     v_of_rho     :      0.01s CPU      0.01s WALL (       1 calls)
     v_h          :      0.00s CPU      0.00s WALL (       1 calls)
     v_xc         :      0.00s CPU      0.00s WALL (       1 calls)

     Called by c_bands:
     init_us_2    :      0.01s CPU      0.01s WALL (       6 calls)
     ccgdiagg     :  72117.22s CPU  72525.89s WALL (      36 calls)
     wfcrot       :   3875.85s CPU   3919.98s WALL (      36 calls)

     Called by sum_band:

     Called by *cgdiagg:
     h_psi        :   3999.15s CPU   4051.49s WALL ( 1287517 calls)
     cdiaghg      :   2273.77s CPU   2287.54s WALL (      36 calls)

     Called by h_psi:
     h_psi:pot    :   3968.92s CPU   4014.29s WALL ( 1287517 calls)
     h_psi:calbec :    236.70s CPU    239.66s WALL ( 1287517 calls)
     vloc_psi     :   3528.76s CPU   3568.40s WALL ( 1287517 calls)
     add_vuspsi   :    190.66s CPU    195.35s WALL ( 1287517 calls)
     hs_1psi      :   3709.22s CPU   3748.26s WALL ( 1287481 calls)
     s_1psi       :    158.44s CPU    162.83s WALL ( 1287481 calls)

     General routines
     calbec       :    366.76s CPU    377.37s WALL ( 2574998 calls)
     fft          :      0.01s CPU      0.01s WALL (       4 calls)
     fftw         :   2873.38s CPU   2906.11s WALL ( 2863682 calls)
     davcio       :      0.06s CPU     24.22s WALL (      12 calls)
 
     Parallel routines
 
     PWSCF        :     22h 4m CPU     22h12m WALL

 
   This run was terminated on:   0:52:29   2Jul2020            

=------------------------------------------------------------------------------=
   JOB DONE.
=------------------------------------------------------------------------------=
