
     Program PWSCF v.6.5 starts on 13Aug2021 at 16:56:48 

     This program is part of the open-source Quantum ESPRESSO suite
     for quantum simulation of materials; please cite
         "P. Giannozzi et al., J. Phys.:Condens. Matter 21 395502 (2009);
         "P. Giannozzi et al., J. Phys.:Condens. Matter 29 465901 (2017);
          URL http://www.quantum-espresso.org", 
     in publications or presentations arising from this work. More details at
     http://www.quantum-espresso.org/quote

     Parallel version (MPI), running on     8 processors

     MPI processes distributed on     1 nodes
     K-points division:     npool     =       8
     Waiting for input...
     Reading input from standard input
Warning: card &IONS ignored
Warning: card / ignored
Warning: card &CELL ignored
Warning: card / ignored

     Current dimensions of program PWSCF are:
     Max number of different atomic species (ntypx) = 10
     Max number of k-points (npk) =  40000
     Max angular momentum in pseudopotentials (lmaxx) =  3
               file b.cpi.UPF: wavefunction(s)  3d 4f renormalized
               file n.cpi.UPF: wavefunction(s)  3d 4f renormalized

     Subspace diagonalization in iterative solution of the eigenvalue problem:
     a serial algorithm will be used

 
     G-vector sticks info
     --------------------
     sticks:   dense  smooth     PW     G-vecs:    dense   smooth      PW
     Sum         433     433    151                19375    19375    3645
 


     bravais-lattice index     =            4
     lattice parameter (alat)  =       4.7319  a.u.
     unit-cell volume          =     244.0890 (a.u.)^3
     number of atoms/cell      =            4
     number of atomic types    =            2
     number of electrons       =        16.00
     number of Kohn-Sham states=           12
     kinetic-energy cutoff     =      70.0000  Ry
     charge density cutoff     =     280.0000  Ry
     convergence threshold     =      1.0E-10
     mixing beta               =       0.7000
     number of iterations used =            8  plain     mixing
     Exchange-correlation= SLA  PZ   NOGX NOGC
                           (   1   1   0   0   0   0   0)

     celldm(1)=   4.731874  celldm(2)=   0.000000  celldm(3)=   2.660224
     celldm(4)=   0.000000  celldm(5)=   0.000000  celldm(6)=   0.000000

     crystal axes: (cart. coord. in units of alat)
               a(1) = (   1.000000   0.000000   0.000000 )  
               a(2) = (  -0.500000   0.866025   0.000000 )  
               a(3) = (   0.000000   0.000000   2.660224 )  

     reciprocal axes: (cart. coord. in units 2 pi/alat)
               b(1) = (  1.000000  0.577350  0.000000 )  
               b(2) = (  0.000000  1.154701  0.000000 )  
               b(3) = (  0.000000  0.000000  0.375908 )  


     PseudoPot. # 1 for B  read from file:
     ./b.cpi.UPF
     MD5 check sum: aadced629ac320abbac2d4088521b25e
     Pseudo is Norm-conserving + core correction, Zval =  3.0
     Generated by new atomic code, or converted to UPF format
     Using radial grid of  453 points,  3 beta functions with: 
                l(1) =   0
                l(2) =   1
                l(3) =   2

     PseudoPot. # 2 for N  read from file:
     ./n.cpi.UPF
     MD5 check sum: ff6dad263d6aed986b71703111ab3f52
     Pseudo is Norm-conserving, Zval =  5.0
     Generated by new atomic code, or converted to UPF format
     Using radial grid of  467 points,  3 beta functions with: 
                l(1) =   0
                l(2) =   1
                l(3) =   2

     atomic species   valence    mass     pseudopotential
        B              3.00    10.81100     B ( 1.00)
        N              5.00    14.00700     N ( 1.00)

     24 Sym. Ops., with inversion, found (12 have fractional translation)


                                    s                        frac. trans.

      isym =  1     identity                                     

 cryst.   s( 1) = (     1          0          0      )
                  (     0          1          0      )
                  (     0          0          1      )

 cart.    s( 1) = (  1.0000000  0.0000000  0.0000000 )
                  (  0.0000000  1.0000000  0.0000000 )
                  (  0.0000000  0.0000000  1.0000000 )


      isym =  2     180 deg rotation - cart. axis [0,0,1]        

 cryst.   s( 2) = (    -1          0          0      )    f =(  0.0000000 )
                  (     0         -1          0      )       (  0.0000000 )
                  (     0          0          1      )       (  0.5000000 )

 cart.    s( 2) = ( -1.0000000  0.0000000  0.0000000 )    f =(  0.0000000 )
                  (  0.0000000 -1.0000000  0.0000000 )       (  0.0000000 )
                  (  0.0000000  0.0000000  1.0000000 )       (  1.3301118 )


      isym =  3     180 deg rotation - cart. axis [0,1,0]        

 cryst.   s( 3) = (    -1          0          0      )    f =(  0.0000000 )
                  (     1          1          0      )       (  0.0000000 )
                  (     0          0         -1      )       ( -0.5000000 )

 cart.    s( 3) = ( -1.0000000  0.0000000  0.0000000 )    f =(  0.0000000 )
                  (  0.0000000  1.0000000  0.0000000 )       (  0.0000000 )
                  (  0.0000000  0.0000000 -1.0000000 )       ( -1.3301118 )


      isym =  4     180 deg rotation - cart. axis [1,0,0]        

 cryst.   s( 4) = (     1          0          0      )
                  (    -1         -1          0      )
                  (     0          0         -1      )

 cart.    s( 4) = (  1.0000000  0.0000000  0.0000000 )
                  (  0.0000000 -1.0000000  0.0000000 )
                  (  0.0000000  0.0000000 -1.0000000 )


      isym =  5      60 deg rotation - cryst. axis [0,0,1]       

 cryst.   s( 5) = (     1          1          0      )    f =(  0.0000000 )
                  (    -1          0          0      )       (  0.0000000 )
                  (     0          0          1      )       (  0.5000000 )

 cart.    s( 5) = (  0.5000000 -0.8660254  0.0000000 )    f =(  0.0000000 )
                  (  0.8660254  0.5000000  0.0000000 )       (  0.0000000 )
                  (  0.0000000  0.0000000  1.0000000 )       (  1.3301118 )


      isym =  6      60 deg rotation - cryst. axis [0,0,-1]      

 cryst.   s( 6) = (     0         -1          0      )    f =(  0.0000000 )
                  (     1          1          0      )       ( -0.0000000 )
                  (     0          0          1      )       (  0.5000000 )

 cart.    s( 6) = (  0.5000000  0.8660254  0.0000000 )    f =(  0.0000000 )
                  ( -0.8660254  0.5000000  0.0000000 )       ( -0.0000000 )
                  (  0.0000000  0.0000000  1.0000000 )       (  1.3301118 )


      isym =  7     120 deg rotation - cryst. axis [0,0,1]       

 cryst.   s( 7) = (     0          1          0      )
                  (    -1         -1          0      )
                  (     0          0          1      )

 cart.    s( 7) = ( -0.5000000 -0.8660254  0.0000000 )
                  (  0.8660254 -0.5000000  0.0000000 )
                  (  0.0000000  0.0000000  1.0000000 )


      isym =  8     120 deg rotation - cryst. axis [0,0,-1]      

 cryst.   s( 8) = (    -1         -1          0      )
                  (     1          0          0      )
                  (     0          0          1      )

 cart.    s( 8) = ( -0.5000000  0.8660254  0.0000000 )
                  ( -0.8660254 -0.5000000  0.0000000 )
                  (  0.0000000  0.0000000  1.0000000 )


      isym =  9     180 deg rotation - cryst. axis [1,-1,0]      

 cryst.   s( 9) = (     0         -1          0      )    f =(  0.0000000 )
                  (    -1          0          0      )       (  0.0000000 )
                  (     0          0         -1      )       ( -0.5000000 )

 cart.    s( 9) = (  0.5000000 -0.8660254  0.0000000 )    f =(  0.0000000 )
                  ( -0.8660254 -0.5000000  0.0000000 )       (  0.0000000 )
                  (  0.0000000  0.0000000 -1.0000000 )       ( -1.3301118 )


      isym = 10     180 deg rotation - cryst. axis [2,1,0]       

 cryst.   s(10) = (     1          1          0      )    f =(  0.0000000 )
                  (     0         -1          0      )       ( -0.0000000 )
                  (     0          0         -1      )       ( -0.5000000 )

 cart.    s(10) = (  0.5000000  0.8660254  0.0000000 )    f =(  0.0000000 )
                  (  0.8660254 -0.5000000  0.0000000 )       ( -0.0000000 )
                  (  0.0000000  0.0000000 -1.0000000 )       ( -1.3301118 )


      isym = 11     180 deg rotation - cryst. axis [0,1,0]       

 cryst.   s(11) = (    -1         -1          0      )
                  (     0          1          0      )
                  (     0          0         -1      )

 cart.    s(11) = ( -0.5000000 -0.8660254  0.0000000 )
                  ( -0.8660254  0.5000000  0.0000000 )
                  (  0.0000000  0.0000000 -1.0000000 )


      isym = 12     180 deg rotation - cryst. axis [1,1,0]       

 cryst.   s(12) = (     0          1          0      )
                  (     1          0          0      )
                  (     0          0         -1      )

 cart.    s(12) = ( -0.5000000  0.8660254  0.0000000 )
                  (  0.8660254  0.5000000  0.0000000 )
                  (  0.0000000  0.0000000 -1.0000000 )


      isym = 13     inversion                                    

 cryst.   s(13) = (    -1          0          0      )
                  (     0         -1          0      )
                  (     0          0         -1      )

 cart.    s(13) = ( -1.0000000  0.0000000  0.0000000 )
                  (  0.0000000 -1.0000000  0.0000000 )
                  (  0.0000000  0.0000000 -1.0000000 )


      isym = 14     inv. 180 deg rotation - cart. axis [0,0,1]   

 cryst.   s(14) = (     1          0          0      )    f =(  0.0000000 )
                  (     0          1          0      )       (  0.0000000 )
                  (     0          0         -1      )       ( -0.5000000 )

 cart.    s(14) = (  1.0000000  0.0000000  0.0000000 )    f =(  0.0000000 )
                  (  0.0000000  1.0000000  0.0000000 )       (  0.0000000 )
                  (  0.0000000  0.0000000 -1.0000000 )       ( -1.3301118 )


      isym = 15     inv. 180 deg rotation - cart. axis [0,1,0]   

 cryst.   s(15) = (     1          0          0      )    f =(  0.0000000 )
                  (    -1         -1          0      )       (  0.0000000 )
                  (     0          0          1      )       (  0.5000000 )

 cart.    s(15) = (  1.0000000  0.0000000  0.0000000 )    f =(  0.0000000 )
                  (  0.0000000 -1.0000000  0.0000000 )       (  0.0000000 )
                  (  0.0000000  0.0000000  1.0000000 )       (  1.3301118 )


      isym = 16     inv. 180 deg rotation - cart. axis [1,0,0]   

 cryst.   s(16) = (    -1          0          0      )
                  (     1          1          0      )
                  (     0          0          1      )

 cart.    s(16) = ( -1.0000000  0.0000000  0.0000000 )
                  (  0.0000000  1.0000000  0.0000000 )
                  (  0.0000000  0.0000000  1.0000000 )


      isym = 17     inv.  60 deg rotation - cryst. axis [0,0,1]  

 cryst.   s(17) = (    -1         -1          0      )    f =(  0.0000000 )
                  (     1          0          0      )       (  0.0000000 )
                  (     0          0         -1      )       ( -0.5000000 )

 cart.    s(17) = ( -0.5000000  0.8660254  0.0000000 )    f =(  0.0000000 )
                  ( -0.8660254 -0.5000000  0.0000000 )       (  0.0000000 )
                  (  0.0000000  0.0000000 -1.0000000 )       ( -1.3301118 )


      isym = 18     inv.  60 deg rotation - cryst. axis [0,0,-1] 

 cryst.   s(18) = (     0          1          0      )    f =(  0.0000000 )
                  (    -1         -1          0      )       ( -0.0000000 )
                  (     0          0         -1      )       ( -0.5000000 )

 cart.    s(18) = ( -0.5000000 -0.8660254  0.0000000 )    f =(  0.0000000 )
                  (  0.8660254 -0.5000000  0.0000000 )       ( -0.0000000 )
                  (  0.0000000  0.0000000 -1.0000000 )       ( -1.3301118 )


      isym = 19     inv. 120 deg rotation - cryst. axis [0,0,1]  

 cryst.   s(19) = (     0         -1          0      )
                  (     1          1          0      )
                  (     0          0         -1      )

 cart.    s(19) = (  0.5000000  0.8660254  0.0000000 )
                  ( -0.8660254  0.5000000  0.0000000 )
                  (  0.0000000  0.0000000 -1.0000000 )


      isym = 20     inv. 120 deg rotation - cryst. axis [0,0,-1] 

 cryst.   s(20) = (     1          1          0      )
                  (    -1          0          0      )
                  (     0          0         -1      )

 cart.    s(20) = (  0.5000000 -0.8660254  0.0000000 )
                  (  0.8660254  0.5000000  0.0000000 )
                  (  0.0000000  0.0000000 -1.0000000 )


      isym = 21     inv. 180 deg rotation - cryst. axis [1,-1,0] 

 cryst.   s(21) = (     0          1          0      )    f =(  0.0000000 )
                  (     1          0          0      )       (  0.0000000 )
                  (     0          0          1      )       (  0.5000000 )

 cart.    s(21) = ( -0.5000000  0.8660254  0.0000000 )    f =( -0.0000000 )
                  (  0.8660254  0.5000000  0.0000000 )       (  0.0000000 )
                  (  0.0000000  0.0000000  1.0000000 )       (  1.3301118 )


      isym = 22     inv. 180 deg rotation - cryst. axis [2,1,0]  

 cryst.   s(22) = (    -1         -1          0      )    f =(  0.0000000 )
                  (     0          1          0      )       ( -0.0000000 )
                  (     0          0          1      )       (  0.5000000 )

 cart.    s(22) = ( -0.5000000 -0.8660254  0.0000000 )    f =(  0.0000000 )
                  ( -0.8660254  0.5000000  0.0000000 )       ( -0.0000000 )
                  (  0.0000000  0.0000000  1.0000000 )       (  1.3301118 )


      isym = 23     inv. 180 deg rotation - cryst. axis [0,1,0]  

 cryst.   s(23) = (     1          1          0      )
                  (     0         -1          0      )
                  (     0          0          1      )

 cart.    s(23) = (  0.5000000  0.8660254  0.0000000 )
                  (  0.8660254 -0.5000000  0.0000000 )
                  (  0.0000000  0.0000000  1.0000000 )


      isym = 24     inv. 180 deg rotation - cryst. axis [1,1,0]  

 cryst.   s(24) = (     0         -1          0      )
                  (    -1          0          0      )
                  (     0          0          1      )

 cart.    s(24) = (  0.5000000 -0.8660254  0.0000000 )
                  ( -0.8660254 -0.5000000  0.0000000 )
                  (  0.0000000  0.0000000  1.0000000 )


     point group D_6h(6/mmm)
     there are 12 classes
     the character table:

       E     2C6   2C3   C2    3C2'  3C2'' i     2S3   2S6   s_h   3s_d  3s_v 
A_1g   1.00  1.00  1.00  1.00  1.00  1.00  1.00  1.00  1.00  1.00  1.00  1.00
A_2g   1.00  1.00  1.00  1.00 -1.00 -1.00  1.00  1.00  1.00  1.00 -1.00 -1.00
B_1g   1.00 -1.00  1.00 -1.00  1.00 -1.00  1.00 -1.00  1.00 -1.00  1.00 -1.00
B_2g   1.00 -1.00  1.00 -1.00 -1.00  1.00  1.00 -1.00  1.00 -1.00 -1.00  1.00
E_1g   2.00  1.00 -1.00 -2.00  0.00  0.00  2.00  1.00 -1.00 -2.00  0.00  0.00
E_2g   2.00 -1.00 -1.00  2.00  0.00  0.00  2.00 -1.00 -1.00  2.00  0.00  0.00
A_1u   1.00  1.00  1.00  1.00  1.00  1.00 -1.00 -1.00 -1.00 -1.00 -1.00 -1.00
A_2u   1.00  1.00  1.00  1.00 -1.00 -1.00 -1.00 -1.00 -1.00 -1.00  1.00  1.00
B_1u   1.00 -1.00  1.00 -1.00  1.00 -1.00 -1.00  1.00 -1.00  1.00 -1.00  1.00
B_2u   1.00 -1.00  1.00 -1.00 -1.00  1.00 -1.00  1.00 -1.00  1.00  1.00 -1.00
E_1u   2.00  1.00 -1.00 -2.00  0.00  0.00 -2.00 -1.00  1.00  2.00  0.00  0.00
E_2u   2.00 -1.00 -1.00  2.00  0.00  0.00 -2.00  1.00  1.00 -2.00  0.00  0.00

     the symmetry operations in each class and the name of the first element:

     E        1
          identity                                               
     2C6      5    6
           60 deg rotation - cryst. axis [0,0,1]                 
     2C3      7    8
          120 deg rotation - cryst. axis [0,0,1]                 
     C2       2
          180 deg rotation - cart. axis [0,0,1]                  
     3C2'     4   12   11
          180 deg rotation - cart. axis [1,0,0]                  
     3C2''    3    9   10
          180 deg rotation - cart. axis [0,1,0]                  
     i       13
          inversion                                              
     2S3     17   18
          inv.  60 deg rotation - cryst. axis [0,0,1]            
     2S6     19   20
          inv. 120 deg rotation - cryst. axis [0,0,1]            
     s_h     14
          inv. 180 deg rotation - cart. axis [0,0,1]             
     3s_d    16   24   23
          inv. 180 deg rotation - cart. axis [1,0,0]             
     3s_v    15   21   22
          inv. 180 deg rotation - cart. axis [0,1,0]             

   Cartesian axes

     site n.     atom                  positions (alat units)
         1           B   tau(   1) = (  -0.0000000   0.5773503   0.6650559  )
         2           B   tau(   2) = (   0.5000000   0.2886751   1.9951677  )
         3           N   tau(   3) = (  -0.0000000   0.5773503   1.9951677  )
         4           N   tau(   4) = (   0.5000000   0.2886751   0.6650559  )

   Crystallographic axes

     site n.     atom                  positions (cryst. coord.)
         1           B   tau(   1) = (  0.3333333  0.6666667  0.2500000  )
         2           B   tau(   2) = (  0.6666667  0.3333333  0.7500000  )
         3           N   tau(   3) = (  0.3333333  0.6666667  0.7500000  )
         4           N   tau(   4) = (  0.6666667  0.3333333  0.2500000  )

     number of k points=   126
                       cart. coord. in units 2pi/alat
        k(    1) = (   0.0416667   0.0721688   0.0313257), wk =   0.0092593
        k(    2) = (   0.0416667   0.0721688   0.0939771), wk =   0.0092593
        k(    3) = (   0.0416667   0.0721688   0.1566284), wk =   0.0092593
        k(    4) = (   0.0416667   0.1683938   0.0313257), wk =   0.0185185
        k(    5) = (   0.0416667   0.1683938   0.0939771), wk =   0.0185185
        k(    6) = (   0.0416667   0.1683938   0.1566284), wk =   0.0185185
        k(    7) = (   0.0416667   0.2646189   0.0313257), wk =   0.0185185
        k(    8) = (   0.0416667   0.2646189   0.0939771), wk =   0.0185185
        k(    9) = (   0.0416667   0.2646189   0.1566284), wk =   0.0185185
        k(   10) = (   0.0416667   0.3608439   0.0313257), wk =   0.0185185
        k(   11) = (   0.0416667   0.3608439   0.0939771), wk =   0.0185185
        k(   12) = (   0.0416667   0.3608439   0.1566284), wk =   0.0185185
        k(   13) = (   0.0416667   0.4570690   0.0313257), wk =   0.0185185
        k(   14) = (   0.0416667   0.4570690   0.0939771), wk =   0.0185185
        k(   15) = (   0.0416667   0.4570690   0.1566284), wk =   0.0185185
        k(   16) = (   0.0416667   0.5532940   0.0313257), wk =   0.0185185
        k(   17) = (   0.0416667   0.5532940   0.0939771), wk =   0.0185185
        k(   18) = (   0.0416667   0.5532940   0.1566284), wk =   0.0185185
        k(   19) = (   0.0416667  -0.5051815   0.0313257), wk =   0.0185185
        k(   20) = (   0.0416667  -0.5051815   0.0939771), wk =   0.0185185
        k(   21) = (   0.0416667  -0.5051815   0.1566284), wk =   0.0185185
        k(   22) = (   0.0416667  -0.4089564   0.0313257), wk =   0.0185185
        k(   23) = (   0.0416667  -0.4089564   0.0939771), wk =   0.0185185
        k(   24) = (   0.0416667  -0.4089564   0.1566284), wk =   0.0185185
        k(   25) = (   0.0416667  -0.3127314   0.0313257), wk =   0.0185185
        k(   26) = (   0.0416667  -0.3127314   0.0939771), wk =   0.0185185
        k(   27) = (   0.0416667  -0.3127314   0.1566284), wk =   0.0185185
        k(   28) = (   0.0416667  -0.2165064   0.0313257), wk =   0.0185185
        k(   29) = (   0.0416667  -0.2165064   0.0939771), wk =   0.0185185
        k(   30) = (   0.0416667  -0.2165064   0.1566284), wk =   0.0185185
        k(   31) = (   0.0416667  -0.1202813   0.0313257), wk =   0.0185185
        k(   32) = (   0.0416667  -0.1202813   0.0939771), wk =   0.0185185
        k(   33) = (   0.0416667  -0.1202813   0.1566284), wk =   0.0185185
        k(   34) = (   0.0416667  -0.0240563   0.0313257), wk =   0.0092593
        k(   35) = (   0.0416667  -0.0240563   0.0939771), wk =   0.0092593
        k(   36) = (   0.0416667  -0.0240563   0.1566284), wk =   0.0092593
        k(   37) = (   0.1250000   0.2165064   0.0313257), wk =   0.0092593
        k(   38) = (   0.1250000   0.2165064   0.0939771), wk =   0.0092593
        k(   39) = (   0.1250000   0.2165064   0.1566284), wk =   0.0092593
        k(   40) = (   0.1250000   0.3127314   0.0313257), wk =   0.0185185
        k(   41) = (   0.1250000   0.3127314   0.0939771), wk =   0.0185185
        k(   42) = (   0.1250000   0.3127314   0.1566284), wk =   0.0185185
        k(   43) = (   0.1250000   0.4089564   0.0313257), wk =   0.0185185
        k(   44) = (   0.1250000   0.4089564   0.0939771), wk =   0.0185185
        k(   45) = (   0.1250000   0.4089564   0.1566284), wk =   0.0185185
        k(   46) = (   0.1250000   0.5051815   0.0313257), wk =   0.0185185
        k(   47) = (   0.1250000   0.5051815   0.0939771), wk =   0.0185185
        k(   48) = (   0.1250000   0.5051815   0.1566284), wk =   0.0185185
        k(   49) = (   0.1250000   0.6014065   0.0313257), wk =   0.0185185
        k(   50) = (   0.1250000   0.6014065   0.0939771), wk =   0.0185185
        k(   51) = (   0.1250000   0.6014065   0.1566284), wk =   0.0185185
        k(   52) = (   0.1250000  -0.4570690   0.0313257), wk =   0.0185185
        k(   53) = (   0.1250000  -0.4570690   0.0939771), wk =   0.0185185
        k(   54) = (   0.1250000  -0.4570690   0.1566284), wk =   0.0185185
        k(   55) = (   0.1250000  -0.3608439   0.0313257), wk =   0.0185185
        k(   56) = (   0.1250000  -0.3608439   0.0939771), wk =   0.0185185
        k(   57) = (   0.1250000  -0.3608439   0.1566284), wk =   0.0185185
        k(   58) = (   0.1250000  -0.2646189   0.0313257), wk =   0.0185185
        k(   59) = (   0.1250000  -0.2646189   0.0939771), wk =   0.0185185
        k(   60) = (   0.1250000  -0.2646189   0.1566284), wk =   0.0185185
        k(   61) = (   0.1250000  -0.1683938   0.0313257), wk =   0.0185185
        k(   62) = (   0.1250000  -0.1683938   0.0939771), wk =   0.0185185
        k(   63) = (   0.1250000  -0.1683938   0.1566284), wk =   0.0185185
        k(   64) = (   0.1250000  -0.0721688   0.0313257), wk =   0.0092593
        k(   65) = (   0.1250000  -0.0721688   0.0939771), wk =   0.0092593
        k(   66) = (   0.1250000  -0.0721688   0.1566284), wk =   0.0092593
        k(   67) = (   0.2083333   0.3608439   0.0313257), wk =   0.0092593
        k(   68) = (   0.2083333   0.3608439   0.0939771), wk =   0.0092593
        k(   69) = (   0.2083333   0.3608439   0.1566284), wk =   0.0092593
        k(   70) = (   0.2083333   0.4570690   0.0313257), wk =   0.0185185
        k(   71) = (   0.2083333   0.4570690   0.0939771), wk =   0.0185185
        k(   72) = (   0.2083333   0.4570690   0.1566284), wk =   0.0185185
        k(   73) = (   0.2083333   0.5532940   0.0313257), wk =   0.0185185
        k(   74) = (   0.2083333   0.5532940   0.0939771), wk =   0.0185185
        k(   75) = (   0.2083333   0.5532940   0.1566284), wk =   0.0185185
        k(   76) = (   0.2083333   0.6495191   0.0313257), wk =   0.0185185
        k(   77) = (   0.2083333   0.6495191   0.0939771), wk =   0.0185185
        k(   78) = (   0.2083333   0.6495191   0.1566284), wk =   0.0185185
        k(   79) = (   0.2083333  -0.4089564   0.0313257), wk =   0.0185185
        k(   80) = (   0.2083333  -0.4089564   0.0939771), wk =   0.0185185
        k(   81) = (   0.2083333  -0.4089564   0.1566284), wk =   0.0185185
        k(   82) = (   0.2083333  -0.3127314   0.0313257), wk =   0.0185185
        k(   83) = (   0.2083333  -0.3127314   0.0939771), wk =   0.0185185
        k(   84) = (   0.2083333  -0.3127314   0.1566284), wk =   0.0185185
        k(   85) = (   0.2083333  -0.2165064   0.0313257), wk =   0.0185185
        k(   86) = (   0.2083333  -0.2165064   0.0939771), wk =   0.0185185
        k(   87) = (   0.2083333  -0.2165064   0.1566284), wk =   0.0185185
        k(   88) = (   0.2083333  -0.1202813   0.0313257), wk =   0.0092593
        k(   89) = (   0.2083333  -0.1202813   0.0939771), wk =   0.0092593
        k(   90) = (   0.2083333  -0.1202813   0.1566284), wk =   0.0092593
        k(   91) = (   0.2916667   0.5051815   0.0313257), wk =   0.0092593
        k(   92) = (   0.2916667   0.5051815   0.0939771), wk =   0.0092593
        k(   93) = (   0.2916667   0.5051815   0.1566284), wk =   0.0092593
        k(   94) = (   0.2916667   0.6014065   0.0313257), wk =   0.0185185
        k(   95) = (   0.2916667   0.6014065   0.0939771), wk =   0.0185185
        k(   96) = (   0.2916667   0.6014065   0.1566284), wk =   0.0185185
        k(   97) = (   0.2916667   0.6976316   0.0313257), wk =   0.0185185
        k(   98) = (   0.2916667   0.6976316   0.0939771), wk =   0.0185185
        k(   99) = (   0.2916667   0.6976316   0.1566284), wk =   0.0185185
        k(  100) = (   0.2916667  -0.3608439   0.0313257), wk =   0.0185185
        k(  101) = (   0.2916667  -0.3608439   0.0939771), wk =   0.0185185
        k(  102) = (   0.2916667  -0.3608439   0.1566284), wk =   0.0185185
        k(  103) = (   0.2916667  -0.2646189   0.0313257), wk =   0.0185185
        k(  104) = (   0.2916667  -0.2646189   0.0939771), wk =   0.0185185
        k(  105) = (   0.2916667  -0.2646189   0.1566284), wk =   0.0185185
        k(  106) = (   0.2916667  -0.1683938   0.0313257), wk =   0.0092593
        k(  107) = (   0.2916667  -0.1683938   0.0939771), wk =   0.0092593
        k(  108) = (   0.2916667  -0.1683938   0.1566284), wk =   0.0092593
        k(  109) = (   0.3750000   0.6495191   0.0313257), wk =   0.0092593
        k(  110) = (   0.3750000   0.6495191   0.0939771), wk =   0.0092593
        k(  111) = (   0.3750000   0.6495191   0.1566284), wk =   0.0092593
        k(  112) = (   0.3750000   0.7457441   0.0313257), wk =   0.0185185
        k(  113) = (   0.3750000   0.7457441   0.0939771), wk =   0.0185185
        k(  114) = (   0.3750000   0.7457441   0.1566284), wk =   0.0185185
        k(  115) = (   0.3750000  -0.3127314   0.0313257), wk =   0.0185185
        k(  116) = (   0.3750000  -0.3127314   0.0939771), wk =   0.0185185
        k(  117) = (   0.3750000  -0.3127314   0.1566284), wk =   0.0185185
        k(  118) = (   0.3750000  -0.2165064   0.0313257), wk =   0.0092593
        k(  119) = (   0.3750000  -0.2165064   0.0939771), wk =   0.0092593
        k(  120) = (   0.3750000  -0.2165064   0.1566284), wk =   0.0092593
        k(  121) = (   0.4583333   0.7938566   0.0313257), wk =   0.0092593
        k(  122) = (   0.4583333   0.7938566   0.0939771), wk =   0.0092593
        k(  123) = (   0.4583333   0.7938566   0.1566284), wk =   0.0092593
        k(  124) = (   0.4583333  -0.2646189   0.0313257), wk =   0.0092593
        k(  125) = (   0.4583333  -0.2646189   0.0939771), wk =   0.0092593
        k(  126) = (   0.4583333  -0.2646189   0.1566284), wk =   0.0092593

                       cryst. coord.
        k(    1) = (   0.0416667   0.0416667   0.0833333), wk =   0.0092593
        k(    2) = (   0.0416667   0.0416667   0.2500000), wk =   0.0092593
        k(    3) = (   0.0416667   0.0416667   0.4166667), wk =   0.0092593
        k(    4) = (   0.0416667   0.1250000   0.0833333), wk =   0.0185185
        k(    5) = (   0.0416667   0.1250000   0.2500000), wk =   0.0185185
        k(    6) = (   0.0416667   0.1250000   0.4166667), wk =   0.0185185
        k(    7) = (   0.0416667   0.2083333   0.0833333), wk =   0.0185185
        k(    8) = (   0.0416667   0.2083333   0.2500000), wk =   0.0185185
        k(    9) = (   0.0416667   0.2083333   0.4166667), wk =   0.0185185
        k(   10) = (   0.0416667   0.2916667   0.0833333), wk =   0.0185185
        k(   11) = (   0.0416667   0.2916667   0.2500000), wk =   0.0185185
        k(   12) = (   0.0416667   0.2916667   0.4166667), wk =   0.0185185
        k(   13) = (   0.0416667   0.3750000   0.0833333), wk =   0.0185185
        k(   14) = (   0.0416667   0.3750000   0.2500000), wk =   0.0185185
        k(   15) = (   0.0416667   0.3750000   0.4166667), wk =   0.0185185
        k(   16) = (   0.0416667   0.4583333   0.0833333), wk =   0.0185185
        k(   17) = (   0.0416667   0.4583333   0.2500000), wk =   0.0185185
        k(   18) = (   0.0416667   0.4583333   0.4166667), wk =   0.0185185
        k(   19) = (   0.0416667  -0.4583333   0.0833333), wk =   0.0185185
        k(   20) = (   0.0416667  -0.4583333   0.2500000), wk =   0.0185185
        k(   21) = (   0.0416667  -0.4583333   0.4166667), wk =   0.0185185
        k(   22) = (   0.0416667  -0.3750000   0.0833333), wk =   0.0185185
        k(   23) = (   0.0416667  -0.3750000   0.2500000), wk =   0.0185185
        k(   24) = (   0.0416667  -0.3750000   0.4166667), wk =   0.0185185
        k(   25) = (   0.0416667  -0.2916667   0.0833333), wk =   0.0185185
        k(   26) = (   0.0416667  -0.2916667   0.2500000), wk =   0.0185185
        k(   27) = (   0.0416667  -0.2916667   0.4166667), wk =   0.0185185
        k(   28) = (   0.0416667  -0.2083333   0.0833333), wk =   0.0185185
        k(   29) = (   0.0416667  -0.2083333   0.2500000), wk =   0.0185185
        k(   30) = (   0.0416667  -0.2083333   0.4166667), wk =   0.0185185
        k(   31) = (   0.0416667  -0.1250000   0.0833333), wk =   0.0185185
        k(   32) = (   0.0416667  -0.1250000   0.2500000), wk =   0.0185185
        k(   33) = (   0.0416667  -0.1250000   0.4166667), wk =   0.0185185
        k(   34) = (   0.0416667  -0.0416667   0.0833333), wk =   0.0092593
        k(   35) = (   0.0416667  -0.0416667   0.2500000), wk =   0.0092593
        k(   36) = (   0.0416667  -0.0416667   0.4166667), wk =   0.0092593
        k(   37) = (   0.1250000   0.1250000   0.0833333), wk =   0.0092593
        k(   38) = (   0.1250000   0.1250000   0.2500000), wk =   0.0092593
        k(   39) = (   0.1250000   0.1250000   0.4166667), wk =   0.0092593
        k(   40) = (   0.1250000   0.2083333   0.0833333), wk =   0.0185185
        k(   41) = (   0.1250000   0.2083333   0.2500000), wk =   0.0185185
        k(   42) = (   0.1250000   0.2083333   0.4166667), wk =   0.0185185
        k(   43) = (   0.1250000   0.2916667   0.0833333), wk =   0.0185185
        k(   44) = (   0.1250000   0.2916667   0.2500000), wk =   0.0185185
        k(   45) = (   0.1250000   0.2916667   0.4166667), wk =   0.0185185
        k(   46) = (   0.1250000   0.3750000   0.0833333), wk =   0.0185185
        k(   47) = (   0.1250000   0.3750000   0.2500000), wk =   0.0185185
        k(   48) = (   0.1250000   0.3750000   0.4166667), wk =   0.0185185
        k(   49) = (   0.1250000   0.4583333   0.0833333), wk =   0.0185185
        k(   50) = (   0.1250000   0.4583333   0.2500000), wk =   0.0185185
        k(   51) = (   0.1250000   0.4583333   0.4166667), wk =   0.0185185
        k(   52) = (   0.1250000  -0.4583333   0.0833333), wk =   0.0185185
        k(   53) = (   0.1250000  -0.4583333   0.2500000), wk =   0.0185185
        k(   54) = (   0.1250000  -0.4583333   0.4166667), wk =   0.0185185
        k(   55) = (   0.1250000  -0.3750000   0.0833333), wk =   0.0185185
        k(   56) = (   0.1250000  -0.3750000   0.2500000), wk =   0.0185185
        k(   57) = (   0.1250000  -0.3750000   0.4166667), wk =   0.0185185
        k(   58) = (   0.1250000  -0.2916667   0.0833333), wk =   0.0185185
        k(   59) = (   0.1250000  -0.2916667   0.2500000), wk =   0.0185185
        k(   60) = (   0.1250000  -0.2916667   0.4166667), wk =   0.0185185
        k(   61) = (   0.1250000  -0.2083333   0.0833333), wk =   0.0185185
        k(   62) = (   0.1250000  -0.2083333   0.2500000), wk =   0.0185185
        k(   63) = (   0.1250000  -0.2083333   0.4166667), wk =   0.0185185
        k(   64) = (   0.1250000  -0.1250000   0.0833333), wk =   0.0092593
        k(   65) = (   0.1250000  -0.1250000   0.2500000), wk =   0.0092593
        k(   66) = (   0.1250000  -0.1250000   0.4166667), wk =   0.0092593
        k(   67) = (   0.2083333   0.2083333   0.0833333), wk =   0.0092593
        k(   68) = (   0.2083333   0.2083333   0.2500000), wk =   0.0092593
        k(   69) = (   0.2083333   0.2083333   0.4166667), wk =   0.0092593
        k(   70) = (   0.2083333   0.2916667   0.0833333), wk =   0.0185185
        k(   71) = (   0.2083333   0.2916667   0.2500000), wk =   0.0185185
        k(   72) = (   0.2083333   0.2916667   0.4166667), wk =   0.0185185
        k(   73) = (   0.2083333   0.3750000   0.0833333), wk =   0.0185185
        k(   74) = (   0.2083333   0.3750000   0.2500000), wk =   0.0185185
        k(   75) = (   0.2083333   0.3750000   0.4166667), wk =   0.0185185
        k(   76) = (   0.2083333   0.4583333   0.0833333), wk =   0.0185185
        k(   77) = (   0.2083333   0.4583333   0.2500000), wk =   0.0185185
        k(   78) = (   0.2083333   0.4583333   0.4166667), wk =   0.0185185
        k(   79) = (   0.2083333  -0.4583333   0.0833333), wk =   0.0185185
        k(   80) = (   0.2083333  -0.4583333   0.2500000), wk =   0.0185185
        k(   81) = (   0.2083333  -0.4583333   0.4166667), wk =   0.0185185
        k(   82) = (   0.2083333  -0.3750000   0.0833333), wk =   0.0185185
        k(   83) = (   0.2083333  -0.3750000   0.2500000), wk =   0.0185185
        k(   84) = (   0.2083333  -0.3750000   0.4166667), wk =   0.0185185
        k(   85) = (   0.2083333  -0.2916667   0.0833333), wk =   0.0185185
        k(   86) = (   0.2083333  -0.2916667   0.2500000), wk =   0.0185185
        k(   87) = (   0.2083333  -0.2916667   0.4166667), wk =   0.0185185
        k(   88) = (   0.2083333  -0.2083333   0.0833333), wk =   0.0092593
        k(   89) = (   0.2083333  -0.2083333   0.2500000), wk =   0.0092593
        k(   90) = (   0.2083333  -0.2083333   0.4166667), wk =   0.0092593
        k(   91) = (   0.2916667   0.2916667   0.0833333), wk =   0.0092593
        k(   92) = (   0.2916667   0.2916667   0.2500000), wk =   0.0092593
        k(   93) = (   0.2916667   0.2916667   0.4166667), wk =   0.0092593
        k(   94) = (   0.2916667   0.3750000   0.0833333), wk =   0.0185185
        k(   95) = (   0.2916667   0.3750000   0.2500000), wk =   0.0185185
        k(   96) = (   0.2916667   0.3750000   0.4166667), wk =   0.0185185
        k(   97) = (   0.2916667   0.4583333   0.0833333), wk =   0.0185185
        k(   98) = (   0.2916667   0.4583333   0.2500000), wk =   0.0185185
        k(   99) = (   0.2916667   0.4583333   0.4166667), wk =   0.0185185
        k(  100) = (   0.2916667  -0.4583333   0.0833333), wk =   0.0185185
        k(  101) = (   0.2916667  -0.4583333   0.2500000), wk =   0.0185185
        k(  102) = (   0.2916667  -0.4583333   0.4166667), wk =   0.0185185
        k(  103) = (   0.2916667  -0.3750000   0.0833333), wk =   0.0185185
        k(  104) = (   0.2916667  -0.3750000   0.2500000), wk =   0.0185185
        k(  105) = (   0.2916667  -0.3750000   0.4166667), wk =   0.0185185
        k(  106) = (   0.2916667  -0.2916667   0.0833333), wk =   0.0092593
        k(  107) = (   0.2916667  -0.2916667   0.2500000), wk =   0.0092593
        k(  108) = (   0.2916667  -0.2916667   0.4166667), wk =   0.0092593
        k(  109) = (   0.3750000   0.3750000   0.0833333), wk =   0.0092593
        k(  110) = (   0.3750000   0.3750000   0.2500000), wk =   0.0092593
        k(  111) = (   0.3750000   0.3750000   0.4166667), wk =   0.0092593
        k(  112) = (   0.3750000   0.4583333   0.0833333), wk =   0.0185185
        k(  113) = (   0.3750000   0.4583333   0.2500000), wk =   0.0185185
        k(  114) = (   0.3750000   0.4583333   0.4166667), wk =   0.0185185
        k(  115) = (   0.3750000  -0.4583333   0.0833333), wk =   0.0185185
        k(  116) = (   0.3750000  -0.4583333   0.2500000), wk =   0.0185185
        k(  117) = (   0.3750000  -0.4583333   0.4166667), wk =   0.0185185
        k(  118) = (   0.3750000  -0.3750000   0.0833333), wk =   0.0092593
        k(  119) = (   0.3750000  -0.3750000   0.2500000), wk =   0.0092593
        k(  120) = (   0.3750000  -0.3750000   0.4166667), wk =   0.0092593
        k(  121) = (   0.4583333   0.4583333   0.0833333), wk =   0.0092593
        k(  122) = (   0.4583333   0.4583333   0.2500000), wk =   0.0092593
        k(  123) = (   0.4583333   0.4583333   0.4166667), wk =   0.0092593
        k(  124) = (   0.4583333  -0.4583333   0.0833333), wk =   0.0092593
        k(  125) = (   0.4583333  -0.4583333   0.2500000), wk =   0.0092593
        k(  126) = (   0.4583333  -0.4583333   0.4166667), wk =   0.0092593

     Dense  grid:    19375 G-vectors     FFT dimensions: (  25,  25,  72)

     Dynamical RAM for                 wfc:       0.44 MB

     Dynamical RAM for     wfc (w. buffer):       7.51 MB

     Dynamical RAM for           str. fact:       0.59 MB

     Dynamical RAM for           local pot:       0.00 MB

     Dynamical RAM for          nlocal pot:       1.33 MB

     Dynamical RAM for                qrad:       0.58 MB

     Dynamical RAM for          rho,v,vnew:       1.92 MB

     Dynamical RAM for               rhoin:       0.64 MB

     Dynamical RAM for            rho*nmix:       4.73 MB

     Dynamical RAM for           G-vectors:       1.26 MB

     Dynamical RAM for          h,s,v(r/c):       0.11 MB

     Dynamical RAM for          <psi|beta>:       0.01 MB

     Dynamical RAM for                 psi:       1.77 MB

     Dynamical RAM for                hpsi:       1.77 MB

     Dynamical RAM for      wfcinit/wfcrot:       4.81 MB

     Estimated static dynamical RAM per process >      21.16 MB

     Estimated max dynamical RAM per process >      25.97 MB

     Estimated total dynamical RAM >     207.72 MB

     Check: negative core charge=   -0.000032

     Initial potential from superposition of free atoms

     starting charge   15.99953, renormalised to   16.00000
     Starting wfcs are   64 randomized atomic wfcs

     total cpu time spent up to now is        1.0 secs

     Self-consistent Calculation

     iteration #  1     ecut=    70.00 Ry     beta= 0.70
     Davidson diagonalization with overlap
     ethr =  1.00E-02,  avg # of iterations =  3.0

     total cpu time spent up to now is        1.7 secs

     total energy              =     -52.91680975 Ry
     Harris-Foulkes estimate   =     -53.46295139 Ry
     estimated scf accuracy    <       0.79133633 Ry

     iteration #  2     ecut=    70.00 Ry     beta= 0.70
     Davidson diagonalization with overlap
     ethr =  4.95E-03,  avg # of iterations =  3.5

     total cpu time spent up to now is        2.4 secs

     total energy              =     -53.09513056 Ry
     Harris-Foulkes estimate   =     -53.31364113 Ry
     estimated scf accuracy    <       0.42142472 Ry

     iteration #  3     ecut=    70.00 Ry     beta= 0.70
     Davidson diagonalization with overlap
     ethr =  2.63E-03,  avg # of iterations =  2.1

     total cpu time spent up to now is        3.0 secs

     total energy              =     -53.18521335 Ry
     Harris-Foulkes estimate   =     -53.18669752 Ry
     estimated scf accuracy    <       0.00435940 Ry

     iteration #  4     ecut=    70.00 Ry     beta= 0.70
     Davidson diagonalization with overlap
     ethr =  2.72E-05,  avg # of iterations =  4.1

     total cpu time spent up to now is        3.8 secs

     total energy              =     -53.18614248 Ry
     Harris-Foulkes estimate   =     -53.18621593 Ry
     estimated scf accuracy    <       0.00016257 Ry

     iteration #  5     ecut=    70.00 Ry     beta= 0.70
     Davidson diagonalization with overlap
     ethr =  1.02E-06,  avg # of iterations =  3.9

     total cpu time spent up to now is        4.5 secs

     total energy              =     -53.18617553 Ry
     Harris-Foulkes estimate   =     -53.18618619 Ry
     estimated scf accuracy    <       0.00002142 Ry

     iteration #  6     ecut=    70.00 Ry     beta= 0.70
     Davidson diagonalization with overlap
     ethr =  1.34E-07,  avg # of iterations =  2.4

     total cpu time spent up to now is        5.1 secs

     total energy              =     -53.18617796 Ry
     Harris-Foulkes estimate   =     -53.18617824 Ry
     estimated scf accuracy    <       0.00000049 Ry

     iteration #  7     ecut=    70.00 Ry     beta= 0.70
     Davidson diagonalization with overlap
     ethr =  3.07E-09,  avg # of iterations =  4.5

     total cpu time spent up to now is        5.9 secs

     total energy              =     -53.18617823 Ry
     Harris-Foulkes estimate   =     -53.18617826 Ry
     estimated scf accuracy    <       0.00000009 Ry

     iteration #  8     ecut=    70.00 Ry     beta= 0.70
     Davidson diagonalization with overlap
     ethr =  5.86E-10,  avg # of iterations =  1.3

     total cpu time spent up to now is        6.3 secs

     total energy              =     -53.18617823 Ry
     Harris-Foulkes estimate   =     -53.18617824 Ry
     estimated scf accuracy    <          1.0E-08 Ry

     iteration #  9     ecut=    70.00 Ry     beta= 0.70
     Davidson diagonalization with overlap
     ethr =  6.22E-11,  avg # of iterations =  2.9

     total cpu time spent up to now is        7.0 secs

     total energy              =     -53.18617824 Ry
     Harris-Foulkes estimate   =     -53.18617824 Ry
     estimated scf accuracy    <          9.9E-10 Ry

     iteration # 10     ecut=    70.00 Ry     beta= 0.70
     Davidson diagonalization with overlap
     ethr =  6.17E-12,  avg # of iterations =  2.2

     total cpu time spent up to now is        7.5 secs

     total energy              =     -53.18617824 Ry
     Harris-Foulkes estimate   =     -53.18617824 Ry
     estimated scf accuracy    <          2.9E-10 Ry

     iteration # 11     ecut=    70.00 Ry     beta= 0.70
     Davidson diagonalization with overlap
     ethr =  1.81E-12,  avg # of iterations =  3.2

     total cpu time spent up to now is        8.2 secs

     End of self-consistent calculation

          k = 0.0417 0.0722 0.0313 (  2412 PWs)   bands (ev):

   -13.0765 -12.7821  -1.7380   0.3432   2.6193   2.6476   2.8224   2.8582
     9.5968  14.2223  15.7645  15.8643

     occupation numbers 
     1.0000   1.0000   1.0000   1.0000   1.0000   1.0000   1.0000   1.0000
     0.0000   0.0000   0.0000   0.0000

          k = 0.0417 0.0722 0.0940 (  2427 PWs)   bands (ev):

   -13.0392 -12.8240  -1.5061  -0.0024   2.6240   2.6459   2.8269   2.8533
    10.2091  13.5467  15.7831  15.8662

     occupation numbers 
     1.0000   1.0000   1.0000   1.0000   1.0000   1.0000   1.0000   1.0000
     0.0000   0.0000   0.0000   0.0000

          k = 0.0417 0.0722 0.1566 (  2430 PWs)   bands (ev):

   -12.9732 -12.8945  -1.0794  -0.5357   2.6322   2.6405   2.8351   2.8448
    11.2464  12.4526  15.8143  15.8470

     occupation numbers 
     1.0000   1.0000   1.0000   1.0000   1.0000   1.0000   1.0000   1.0000
     0.0000   0.0000   0.0000   0.0000

          k = 0.0417 0.1684 0.0313 (  2410 PWs)   bands (ev):

   -12.7378 -12.4551  -1.2739   0.7568   1.4456   1.4777   2.2390   2.2826
    10.1449  13.9929  15.5084  15.6954

     occupation numbers 
     1.0000   1.0000   1.0000   1.0000   1.0000   1.0000   1.0000   1.0000
     0.0000   0.0000   0.0000   0.0000

          k = 0.0417 0.1684 0.0940 (  2425 PWs)   bands (ev):

   -12.7020 -12.4951  -1.0482   0.4147   1.4536   1.4832   2.2449   2.2767
    10.7150  13.5464  15.5523  15.7083

     occupation numbers 
     1.0000   1.0000   1.0000   1.0000   1.0000   1.0000   1.0000   1.0000
     0.0000   0.0000   0.0000   0.0000

          k = 0.0417 0.1684 0.1566 (  2426 PWs)   bands (ev):

   -12.6384 -12.5628  -0.6332  -0.1049   1.4663   1.4784   2.2549   2.2666
    11.6622  12.7042  15.6165  15.6768

     occupation numbers 
     1.0000   1.0000   1.0000   1.0000   1.0000   1.0000   1.0000   1.0000
     0.0000   0.0000   0.0000   0.0000

          k = 0.0417 0.2646 0.0313 (  2414 PWs)   bands (ev):

   -12.1493 -11.8887  -0.4639  -0.2291  -0.1857   1.4761   1.4949   1.5459
    11.0069  13.2657  13.9752  15.1303

     occupation numbers 
     1.0000   1.0000   1.0000   1.0000   1.0000   1.0000   1.0000   1.0000
     0.0000   0.0000   0.0000   0.0000

          k = 0.0417 0.2646 0.0940 (  2417 PWs)   bands (ev):

   -12.1160 -11.9254  -0.3399  -0.2039  -0.1232   1.1745   1.5007   1.5392
    11.4490  13.0859  14.1808  15.1258

     occupation numbers 
     1.0000   1.0000   1.0000   1.0000   1.0000   1.0000   1.0000   1.0000
     0.0000   0.0000   0.0000   0.0000

          k = 0.0417 0.2646 0.1566 (  2415 PWs)   bands (ev):

   -12.0573 -11.9875  -0.2686  -0.2305   0.2191   0.7015   1.5128   1.5269
    12.1050  12.6950  14.6133  15.0163

     occupation numbers 
     1.0000   1.0000   1.0000   1.0000   1.0000   1.0000   1.0000   1.0000
     0.0000   0.0000   0.0000   0.0000

          k = 0.0417 0.3608 0.0313 (  2419 PWs)   bands (ev):

   -11.3629 -11.1382  -2.0221  -1.9482   0.6611   0.8179   0.8757   2.4232
    11.5674  12.0745  12.4019  14.7982

     occupation numbers 
     1.0000   1.0000   1.0000   1.0000   1.0000   1.0000   1.0000   1.0000
     0.0000   0.0000   0.0000   0.0000

          k = 0.0417 0.3608 0.0940 (  2415 PWs)   bands (ev):

   -11.3340 -11.1696  -2.0160  -1.9611   0.8188   0.8617   0.8825   2.1506
    11.4628  11.9564  13.1038  14.7713

     occupation numbers 
     1.0000   1.0000   1.0000   1.0000   1.0000   1.0000   1.0000   1.0000
     0.0000   0.0000   0.0000   0.0000

          k = 0.0417 0.3608 0.1566 (  2413 PWs)   bands (ev):

   -11.2831 -11.2229  -2.0020  -1.9817   0.8369   0.8530   1.2487   1.7127
    11.5390  11.7380  14.0015  14.5970

     occupation numbers 
     1.0000   1.0000   1.0000   1.0000   1.0000   1.0000   1.0000   1.0000
     0.0000   0.0000   0.0000   0.0000

          k = 0.0417 0.4571 0.0313 (  2419 PWs)   bands (ev):

   -10.5115 -10.3463  -3.5638  -3.4810   0.3418   0.4034   1.9440   3.3984
     9.6975  10.8119  13.3073  14.5726

     occupation numbers 
     1.0000   1.0000   1.0000   1.0000   1.0000   1.0000   1.0000   1.0000
     0.0000   0.0000   0.0000   0.0000

          k = 0.0417 0.4571 0.0940 (  2419 PWs)   bands (ev):

   -10.4899 -10.3690  -3.5553  -3.4946   0.3497   0.3949   2.1244   3.1871
     9.7591  10.5705  13.7352  14.5660

     occupation numbers 
     1.0000   1.0000   1.0000   1.0000   1.0000   1.0000   1.0000   1.0000
     0.0000   0.0000   0.0000   0.0000

          k = 0.0417 0.4571 0.1566 (  2414 PWs)   bands (ev):

   -10.4521 -10.4079  -3.5387  -3.5164   0.3639   0.3804   2.4460   2.8344
     9.9380  10.2344  14.2293  14.4932

     occupation numbers 
     1.0000   1.0000   1.0000   1.0000   1.0000   1.0000   1.0000   1.0000
     0.0000   0.0000   0.0000   0.0000

          k = 0.0417 0.5533 0.0313 (  2415 PWs)   bands (ev):

    -9.9371  -9.8599  -4.4071  -4.3432   0.1284   0.1916   2.9135   3.9353
     8.5577   9.8902  13.9725  14.4732

     occupation numbers 
     1.0000   1.0000   1.0000   1.0000   1.0000   1.0000   1.0000   1.0000
     0.0000   0.0000   0.0000   0.0000

          k = 0.0417 0.5533 0.0940 (  2423 PWs)   bands (ev):

    -9.9267  -9.8702  -4.4016  -4.3547   0.1367   0.1828   3.0550   3.8092
     8.6380   9.6096  14.1530  14.4803

     occupation numbers 
     1.0000   1.0000   1.0000   1.0000   1.0000   1.0000   1.0000   1.0000
     0.0000   0.0000   0.0000   0.0000

          k = 0.0417 0.5533 0.1566 (  2411 PWs)   bands (ev):

    -9.9086  -9.8879  -4.3896  -4.3725   0.1512   0.1681   3.2999   3.5782
     8.8528   9.2073  14.3543  14.4593

     occupation numbers 
     1.0000   1.0000   1.0000   1.0000   1.0000   1.0000   1.0000   1.0000
     0.0000   0.0000   0.0000   0.0000

          k = 0.0417-0.5052 0.0313 (  2418 PWs)   bands (ev):

   -10.1556 -10.0339  -4.1083  -4.0328   0.2001   0.2627   2.5286   3.7574
     8.9698  10.2318  13.7399  14.5066

     occupation numbers 
     1.0000   1.0000   1.0000   1.0000   1.0000   1.0000   1.0000   1.0000
     0.0000   0.0000   0.0000   0.0000

          k = 0.0417-0.5052 0.0940 (  2420 PWs)   bands (ev):

   -10.1394 -10.0504  -4.1009  -4.0456   0.2083   0.2542   2.6888   3.5912
     9.0486   9.9678  14.0140  14.5088

     occupation numbers 
     1.0000   1.0000   1.0000   1.0000   1.0000   1.0000   1.0000   1.0000
     0.0000   0.0000   0.0000   0.0000

          k = 0.0417-0.5052 0.1566 (  2417 PWs)   bands (ev):

   -10.1113 -10.0788  -4.0862  -4.0659   0.2227   0.2394   2.9707   3.3020
     9.2554   9.5907  14.3149  14.4707

     occupation numbers 
     1.0000   1.0000   1.0000   1.0000   1.0000   1.0000   1.0000   1.0000
     0.0000   0.0000   0.0000   0.0000

          k = 0.0417-0.4090 0.0313 (  2419 PWs)   bands (ev):

   -10.9310 -10.7320  -2.8472  -2.7657   0.5496   0.6098   1.2982   2.9289
    10.6113  11.5107  12.7649  14.6705

     occupation numbers 
     1.0000   1.0000   1.0000   1.0000   1.0000   1.0000   1.0000   1.0000
     0.0000   0.0000   0.0000   0.0000

          k = 0.0417-0.4090 0.0940 (  2413 PWs)   bands (ev):

   -10.9052 -10.7596  -2.8392  -2.7792   0.5572   0.6014   1.4947   2.6822
    10.6253  11.2818  13.3687  14.6525

     occupation numbers 
     1.0000   1.0000   1.0000   1.0000   1.0000   1.0000   1.0000   1.0000
     0.0000   0.0000   0.0000   0.0000

          k = 0.0417-0.4090 0.1566 (  2418 PWs)   bands (ev):

   -10.8600 -10.8068  -2.8230  -2.8009   0.5709   0.5871   1.8475   2.2800
    10.7517  10.9948  14.1020  14.5298

     occupation numbers 
     1.0000   1.0000   1.0000   1.0000   1.0000   1.0000   1.0000   1.0000
     0.0000   0.0000   0.0000   0.0000

          k = 0.0417-0.3127 0.0313 (  2414 PWs)   bands (ev):

   -11.7754 -11.5307  -1.1382  -1.0750   0.0705   1.1365   1.1919   1.9301
    11.5155  12.5830  13.0947  14.9531

     occupation numbers 
     1.0000   1.0000   1.0000   1.0000   1.0000   1.0000   1.0000   1.0000
     0.0000   0.0000   0.0000   0.0000

          k = 0.0417-0.3127 0.0940 (  2420 PWs)   bands (ev):

   -11.7441 -11.5651  -1.1367  -1.0878   0.2911   1.1437   1.1838   1.6394
    11.7420  12.5525  13.4078  14.9280

     occupation numbers 
     1.0000   1.0000   1.0000   1.0000   1.0000   1.0000   1.0000   1.0000
     0.0000   0.0000   0.0000   0.0000

          k = 0.0417-0.3127 0.1566 (  2415 PWs)   bands (ev):

   -11.6888 -11.6233  -1.1266  -1.1079   0.6850   1.1398   1.1636   1.2010
    12.0474  12.3410  14.1263  14.7420

     occupation numbers 
     1.0000   1.0000   1.0000   1.0000   1.0000   1.0000   1.0000   1.0000
     0.0000   0.0000   0.0000   0.0000

          k = 0.0417-0.2165 0.0313 (  2409 PWs)   bands (ev):

   -12.4726 -12.1995  -0.9082   0.6415   0.6758   1.0882   1.8691   1.9173
    10.5427  13.7149  14.8828  15.3206

     occupation numbers 
     1.0000   1.0000   1.0000   1.0000   1.0000   1.0000   1.0000   1.0000
     0.0000   0.0000   0.0000   0.0000

          k = 0.0417-0.2165 0.0940 (  2415 PWs)   bands (ev):

   -12.4378 -12.2381  -0.6900   0.5906   0.6569   0.8422   1.8757   1.9110
    11.0687  13.4074  15.0178  15.3476

     occupation numbers 
     1.0000   1.0000   1.0000   1.0000   1.0000   1.0000   1.0000   1.0000
     0.0000   0.0000   0.0000   0.0000

          k = 0.0417-0.2165 0.1566 (  2418 PWs)   bands (ev):

   -12.3763 -12.3033  -0.2917   0.2023   0.6795   0.7173   1.8868   1.8999
    11.9148  12.7792  15.2397  15.3566

     occupation numbers 
     1.0000   1.0000   1.0000   1.0000   1.0000   1.0000   1.0000   1.0000
     0.0000   0.0000   0.0000   0.0000

          k = 0.0417-0.1203 0.0313 (  2409 PWs)   bands (ev):

   -12.9401 -12.6504  -1.5515   0.5103   2.1238   2.1504   2.5700   2.6089
     9.8250  14.1477  15.6711  15.8522

     occupation numbers 
     1.0000   1.0000   1.0000   1.0000   1.0000   1.0000   1.0000   1.0000
     0.0000   0.0000   0.0000   0.0000

          k = 0.0417-0.1203 0.0940 (  2421 PWs)   bands (ev):

   -12.9034 -12.6915  -1.3218   0.1670   2.1295   2.1514   2.5751   2.6035
    10.4215  13.5715  15.7061  15.8381

     occupation numbers 
     1.0000   1.0000   1.0000   1.0000   1.0000   1.0000   1.0000   1.0000
     0.0000   0.0000   0.0000   0.0000

          k = 0.0417-0.1203 0.1566 (  2424 PWs)   bands (ev):

   -12.8383 -12.7609  -0.8995  -0.3612   2.1386   2.1473   2.5840   2.5945
    11.4262  12.5736  15.7555  15.8039

     occupation numbers 
     1.0000   1.0000   1.0000   1.0000   1.0000   1.0000   1.0000   1.0000
     0.0000   0.0000   0.0000   0.0000

          k = 0.0417-0.0241 0.0313 (  2418 PWs)   bands (ev):

   -13.1450 -12.8485  -1.8317   0.2591   2.8841   2.9173   2.9563   2.9925
     9.4765  14.2502  15.7923  15.9089

     occupation numbers 
     1.0000   1.0000   1.0000   1.0000   1.0000   1.0000   1.0000   1.0000
     0.0000   0.0000   0.0000   0.0000

          k = 0.0417-0.0241 0.0940 (  2417 PWs)   bands (ev):

   -13.1075 -12.8905  -1.5985  -0.0879   2.8888   2.9136   2.9614   2.9877
    10.0965  13.5214  15.8114  15.9002

     occupation numbers 
     1.0000   1.0000   1.0000   1.0000   1.0000   1.0000   1.0000   1.0000
     0.0000   0.0000   0.0000   0.0000

          k = 0.0417-0.0241 0.1566 (  2434 PWs)   bands (ev):

   -13.0410 -12.9617  -1.1700  -0.6238   2.8970   2.9062   2.9696   2.9793
    11.1490  12.3818  15.8416  15.8748

     occupation numbers 
     1.0000   1.0000   1.0000   1.0000   1.0000   1.0000   1.0000   1.0000
     0.0000   0.0000   0.0000   0.0000

          k = 0.1250 0.2165 0.0313 (  2417 PWs)   bands (ev):

   -12.2769 -12.0112  -0.6374   0.2776   0.2904   1.3212   1.4236   1.4666
    10.8600  13.5035  14.3555  15.9632

     occupation numbers 
     1.0000   1.0000   1.0000   1.0000   1.0000   1.0000   1.0000   1.0000
     0.0000   0.0000   0.0000   0.0000

          k = 0.1250 0.2165 0.0940 (  2424 PWs)   bands (ev):

   -12.2430 -12.0486  -0.4296   0.2717   0.2946   1.0200   1.4314   1.4607
    11.3446  13.2756  14.5643  16.0031

     occupation numbers 
     1.0000   1.0000   1.0000   1.0000   1.0000   1.0000   1.0000   1.0000
     0.0000   0.0000   0.0000   0.0000

          k = 0.1250 0.2165 0.1566 (  2417 PWs)   bands (ev):

   -12.1831 -12.1120  -0.0701   0.2073   0.3460   0.5858   1.4406   1.4512
    12.0936  12.7999  15.0199  15.7212

     occupation numbers 
     1.0000   1.0000   1.0000   1.0000   1.0000   1.0000   1.0000   1.0000
     0.0000   0.0000   0.0000   0.0000

          k = 0.1250 0.3127 0.0313 (  2419 PWs)   bands (ev):

   -11.5913 -11.3543  -1.2336  -1.1921   0.3297   0.5426   0.5983   2.1527
    11.8400  12.4616  12.7397  15.9505

     occupation numbers 
     1.0000   1.0000   1.0000   1.0000   1.0000   1.0000   1.0000   1.0000
     0.0000   0.0000   0.0000   0.0000

          k = 0.1250 0.3127 0.0940 (  2413 PWs)   bands (ev):

   -11.5609 -11.3874  -1.2331  -1.2014   0.5080   0.5592   0.6173   1.8707
    11.8658  12.4018  13.3238  15.8919

     occupation numbers 
     1.0000   1.0000   1.0000   1.0000   1.0000   1.0000   1.0000   1.0000
     0.0000   0.0000   0.0000   0.0000

          k = 0.1250 0.3127 0.1566 (  2416 PWs)   bands (ev):

   -11.5073 -11.4438  -1.2273  -1.2152   0.5531   0.5669   0.9483   1.4208
    12.0053  12.2105  14.3362  15.4041

     occupation numbers 
     1.0000   1.0000   1.0000   1.0000   1.0000   1.0000   1.0000   1.0000
     0.0000   0.0000   0.0000   0.0000

          k = 0.1250 0.4090 0.0313 (  2421 PWs)   bands (ev):

   -10.7651 -10.5739  -2.7922  -2.7217  -0.1210  -0.0568   1.5428   3.1261
    10.5907  11.3166  13.2271  15.7200

     occupation numbers 
     1.0000   1.0000   1.0000   1.0000   1.0000   1.0000   1.0000   1.0000
     0.0000   0.0000   0.0000   0.0000

          k = 0.1250 0.4090 0.0940 (  2411 PWs)   bands (ev):

   -10.7403 -10.6003  -2.7852  -2.7334  -0.1138  -0.0668   1.7362   2.8900
    10.5908  11.1359  13.8527  15.6791

     occupation numbers 
     1.0000   1.0000   1.0000   1.0000   1.0000   1.0000   1.0000   1.0000
     0.0000   0.0000   0.0000   0.0000

          k = 0.1250 0.4090 0.1566 (  2407 PWs)   bands (ev):

   -10.6967 -10.6455  -2.7712  -2.7521  -0.1002  -0.0829   2.0817   2.5021
    10.6877  10.8925  14.7466  15.4409

     occupation numbers 
     1.0000   1.0000   1.0000   1.0000   1.0000   1.0000   1.0000   1.0000
     0.0000   0.0000   0.0000   0.0000

          k = 0.1250 0.5052 0.0313 (  2415 PWs)   bands (ev):

   -10.0132  -9.8976  -3.9767  -3.9010  -0.5003  -0.4315   2.7557   3.9196
     9.0677  10.1333  14.4667  15.5580

     occupation numbers 
     1.0000   1.0000   1.0000   1.0000   1.0000   1.0000   1.0000   1.0000
     0.0000   0.0000   0.0000   0.0000

          k = 0.1250 0.5052 0.0940 (  2408 PWs)   bands (ev):

    -9.9978  -9.9132  -3.9690  -3.9135  -0.4921  -0.4416   2.9110   3.7668
     9.1248   9.9067  14.8196  15.5534

     occupation numbers 
     1.0000   1.0000   1.0000   1.0000   1.0000   1.0000   1.0000   1.0000
     0.0000   0.0000   0.0000   0.0000

          k = 0.1250 0.5052 0.1566 (  2416 PWs)   bands (ev):

    -9.9712  -9.9403  -3.9539  -3.9336  -0.4771  -0.4586   3.1819   3.4965
     9.2931   9.5801  15.2511  15.4903

     occupation numbers 
     1.0000   1.0000   1.0000   1.0000   1.0000   1.0000   1.0000   1.0000
     0.0000   0.0000   0.0000   0.0000

          k = 0.1250 0.6014 0.0313 (  2410 PWs)   bands (ev):

    -9.8033  -9.7304  -4.2604  -4.1901  -0.5770  -0.5072   3.1375   4.0822
     8.6869   9.8136  14.8393  15.5232

     occupation numbers 
     1.0000   1.0000   1.0000   1.0000   1.0000   1.0000   1.0000   1.0000
     0.0000   0.0000   0.0000   0.0000

          k = 0.1250 0.6014 0.0940 (  2409 PWs)   bands (ev):

    -9.7934  -9.7401  -4.2536  -4.2021  -0.5686  -0.5174   3.2728   3.9712
     8.7443   9.5704  15.0788  15.5271

     occupation numbers 
     1.0000   1.0000   1.0000   1.0000   1.0000   1.0000   1.0000   1.0000
     0.0000   0.0000   0.0000   0.0000

          k = 0.1250 0.6014 0.1566 (  2418 PWs)   bands (ev):

    -9.7765  -9.7570  -4.2399  -4.2211  -0.5534  -0.5347   3.5041   3.7622
     8.9177   9.2207  15.3546  15.4967

     occupation numbers 
     1.0000   1.0000   1.0000   1.0000   1.0000   1.0000   1.0000   1.0000
     0.0000   0.0000   0.0000   0.0000

          k = 0.1250-0.4571 0.0313 (  2419 PWs)   bands (ev):

   -10.3572 -10.1994  -3.4628  -3.3859  -0.3478  -0.2808   2.1792   3.5789
     9.7425  10.6721  13.8800  15.6250

     occupation numbers 
     1.0000   1.0000   1.0000   1.0000   1.0000   1.0000   1.0000   1.0000
     0.0000   0.0000   0.0000   0.0000

          k = 0.1250-0.4571 0.0940 (  2412 PWs)   bands (ev):

   -10.3365 -10.2210  -3.4549  -3.3984  -0.3399  -0.2908   2.3556   3.3795
     9.7849  10.4698  14.3718  15.6046

     occupation numbers 
     1.0000   1.0000   1.0000   1.0000   1.0000   1.0000   1.0000   1.0000
     0.0000   0.0000   0.0000   0.0000

          k = 0.1250-0.4571 0.1566 (  2416 PWs)   bands (ev):

   -10.3004 -10.2581  -3.4394  -3.4186  -0.3254  -0.3075   2.6685   3.0428
     9.9292  10.1817  15.0390  15.4729

     occupation numbers 
     1.0000   1.0000   1.0000   1.0000   1.0000   1.0000   1.0000   1.0000
     0.0000   0.0000   0.0000   0.0000

          k = 0.1250-0.3608 0.0313 (  2418 PWs)   bands (ev):

   -11.1870 -10.9700  -2.0307  -1.9728   0.1771   0.2373   0.9152   2.6345
    11.4964  11.9711  12.6141  15.8345

     occupation numbers 
     1.0000   1.0000   1.0000   1.0000   1.0000   1.0000   1.0000   1.0000
     0.0000   0.0000   0.0000   0.0000

          k = 0.1250-0.3608 0.0940 (  2413 PWs)   bands (ev):

   -11.1590 -11.0003  -2.0261  -1.9832   0.1831   0.2272   1.1226   2.3714
    11.3964  11.8016  13.4015  15.7756

     occupation numbers 
     1.0000   1.0000   1.0000   1.0000   1.0000   1.0000   1.0000   1.0000
     0.0000   0.0000   0.0000   0.0000

          k = 0.1250-0.3608 0.1566 (  2411 PWs)   bands (ev):

   -11.1098 -11.0517  -2.0153  -1.9995   0.1953   0.2115   1.4928   1.9466
    11.4374  11.6012  14.4607  15.4041

     occupation numbers 
     1.0000   1.0000   1.0000   1.0000   1.0000   1.0000   1.0000   1.0000
     0.0000   0.0000   0.0000   0.0000

          k = 0.1250-0.2646 0.0313 (  2419 PWs)   bands (ev):

   -11.9586 -11.7056  -0.4540  -0.4258  -0.1849   0.9636   1.0142   1.7102
    11.3369  13.0705  13.5306  16.0265

     occupation numbers 
     1.0000   1.0000   1.0000   1.0000   1.0000   1.0000   1.0000   1.0000
     0.0000   0.0000   0.0000   0.0000

          k = 0.1250-0.2646 0.0940 (  2417 PWs)   bands (ev):

   -11.9263 -11.7412  -0.4675  -0.4355   0.0486   0.9654   1.0084   1.4183
    11.7035  12.9203  13.8488  16.0089

     occupation numbers 
     1.0000   1.0000   1.0000   1.0000   1.0000   1.0000   1.0000   1.0000
     0.0000   0.0000   0.0000   0.0000

          k = 0.1250-0.2646 0.1566 (  2417 PWs)   bands (ev):

   -11.8692 -11.8015  -0.4640  -0.4503   0.4432   0.8930   1.0008   1.0330
    12.2037  12.6272  14.5451  15.5088

     occupation numbers 
     1.0000   1.0000   1.0000   1.0000   1.0000   1.0000   1.0000   1.0000
     0.0000   0.0000   0.0000   0.0000

          k = 0.1250-0.1684 0.0313 (  2410 PWs)   bands (ev):

   -12.5382 -12.2627  -0.9990   0.9068   0.9160   1.0241   1.8674   1.9112
    10.4577  13.8032  15.0951  15.7106

     occupation numbers 
     1.0000   1.0000   1.0000   1.0000   1.0000   1.0000   1.0000   1.0000
     0.0000   0.0000   0.0000   0.0000

          k = 0.1250-0.1684 0.0940 (  2428 PWs)   bands (ev):

   -12.5033 -12.3017  -0.7783   0.6314   0.9202   0.9750   1.8739   1.9054
    10.9972  13.4691  15.2378  15.7335

     occupation numbers 
     1.0000   1.0000   1.0000   1.0000   1.0000   1.0000   1.0000   1.0000
     0.0000   0.0000   0.0000   0.0000

          k = 0.1250-0.1684 0.1566 (  2422 PWs)   bands (ev):

   -12.4412 -12.3675  -0.3735   0.1384   0.9358   0.9546   1.8841   1.8955
    11.8747  12.7901  15.5128  15.7292

     occupation numbers 
     1.0000   1.0000   1.0000   1.0000   1.0000   1.0000   1.0000   1.0000
     0.0000   0.0000   0.0000   0.0000

          k = 0.1250-0.0722 0.0313 (  2418 PWs)   bands (ev):

   -12.8724 -12.5851  -1.4587   0.5931   1.8660   1.8986   2.4768   2.5197
     9.9320  14.0997  15.4994  15.8144

     occupation numbers 
     1.0000   1.0000   1.0000   1.0000   1.0000   1.0000   1.0000   1.0000
     0.0000   0.0000   0.0000   0.0000

          k = 0.1250-0.0722 0.0940 (  2416 PWs)   bands (ev):

   -12.8359 -12.6257  -1.2302   0.2506   1.8731   1.9004   2.4827   2.5140
    10.5200  13.5670  15.5548  15.7711

     occupation numbers 
     1.0000   1.0000   1.0000   1.0000   1.0000   1.0000   1.0000   1.0000
     0.0000   0.0000   0.0000   0.0000

          k = 0.1250-0.0722 0.1566 (  2431 PWs)   bands (ev):

   -12.7714 -12.6946  -0.8103  -0.2750   1.8843   1.8951   2.4925   2.5040
    11.5062  12.6199  15.6299  15.7056

     occupation numbers 
     1.0000   1.0000   1.0000   1.0000   1.0000   1.0000   1.0000   1.0000
     0.0000   0.0000   0.0000   0.0000

          k = 0.2083 0.3608 0.0313 (  2425 PWs)   bands (ev):

   -10.8560 -10.6562  -2.2669  -2.2628  -0.5394  -0.4881   1.4017   3.0262
    11.0892  11.4667  13.1966  17.1143

     occupation numbers 
     1.0000   1.0000   1.0000   1.0000   1.0000   1.0000   1.0000   1.0000
     0.0000   0.0000   0.0000   0.0000

          k = 0.2083 0.3608 0.0940 (  2420 PWs)   bands (ev):

   -10.8301 -10.6839  -2.2681  -2.2655  -0.5345  -0.4974   1.5995   2.7823
    11.0180  11.3517  13.8863  16.9079

     occupation numbers 
     1.0000   1.0000   1.0000   1.0000   1.0000   1.0000   1.0000   1.0000
     0.0000   0.0000   0.0000   0.0000

          k = 0.2083 0.3608 0.1566 (  2409 PWs)   bands (ev):

   -10.7846 -10.7310  -2.2691  -2.2682  -0.5248  -0.5114   1.9531   2.3835
    11.0444  11.1813  14.9302  16.0228

     occupation numbers 
     1.0000   1.0000   1.0000   1.0000   1.0000   1.0000   1.0000   1.0000
     0.0000   0.0000   0.0000   0.0000

          k = 0.2083 0.4571 0.0313 (  2410 PWs)   bands (ev):

   -10.0798  -9.9391  -3.3371  -3.2776  -1.3008  -1.2418   2.6191   3.8916
     9.6991  10.3441  14.6419  16.5121

     occupation numbers 
     1.0000   1.0000   1.0000   1.0000   1.0000   1.0000   1.0000   1.0000
     0.0000   0.0000   0.0000   0.0000

          k = 0.2083 0.4571 0.0940 (  2406 PWs)   bands (ev):

   -10.0613  -9.9583  -3.3307  -3.2872  -1.2949  -1.2517   2.7846   3.7174
     9.7062  10.1936  15.1283  16.5108

     occupation numbers 
     1.0000   1.0000   1.0000   1.0000   1.0000   1.0000   1.0000   1.0000
     0.0000   0.0000   0.0000   0.0000

          k = 0.2083 0.4571 0.1566 (  2407 PWs)   bands (ev):

   -10.0290  -9.9914  -3.3185  -3.3027  -1.2831  -1.2673   3.0751   3.4171
     9.7917   9.9751  15.8323  16.3522

     occupation numbers 
     1.0000   1.0000   1.0000   1.0000   1.0000   1.0000   1.0000   1.0000
     0.0000   0.0000   0.0000   0.0000

          k = 0.2083 0.5533 0.0313 (  2405 PWs)   bands (ev):

    -9.5758  -9.5149  -3.9851  -3.8982  -1.6187  -1.5499   3.5494   4.3058
     8.8694   9.6094  15.9603  16.0089

     occupation numbers 
     1.0000   1.0000   1.0000   1.0000   1.0000   1.0000   1.0000   1.0000
     0.0000   0.0000   0.0000   0.0000

          k = 0.2083 0.5533 0.0940 (  2406 PWs)   bands (ev):

    -9.5676  -9.5230  -3.9754  -3.9118  -1.6113  -1.5609   3.6675   4.2285
     8.8772   9.4260  16.1294  16.3179

     occupation numbers 
     1.0000   1.0000   1.0000   1.0000   1.0000   1.0000   1.0000   1.0000
     0.0000   0.0000   0.0000   0.0000

          k = 0.2083 0.5533 0.1566 (  2410 PWs)   bands (ev):

    -9.5534  -9.5370  -3.9571  -3.9338  -1.5971  -1.5787   3.8638   4.0718
     8.9652   9.1686  16.4153  16.6231

     occupation numbers 
     1.0000   1.0000   1.0000   1.0000   1.0000   1.0000   1.0000   1.0000
     0.0000   0.0000   0.0000   0.0000

          k = 0.2083 0.6495 0.0313 (  2408 PWs)   bands (ev):

    -9.7651  -9.6647  -3.7511  -3.6730  -1.5140  -1.4487   3.1746   4.1842
     9.1661   9.8853  15.3818  16.1617

     occupation numbers 
     1.0000   1.0000   1.0000   1.0000   1.0000   1.0000   1.0000   1.0000
     0.0000   0.0000   0.0000   0.0000

          k = 0.2083 0.6495 0.0940 (  2409 PWs)   bands (ev):

    -9.7517  -9.6782  -3.7424  -3.6853  -1.5072  -1.4593   3.3164   4.0608
     9.1785   9.7148  15.7686  16.2767

     occupation numbers 
     1.0000   1.0000   1.0000   1.0000   1.0000   1.0000   1.0000   1.0000
     0.0000   0.0000   0.0000   0.0000

          k = 0.2083 0.6495 0.1566 (  2409 PWs)   bands (ev):

    -9.7285  -9.7016  -3.7261  -3.7052  -1.4938  -1.4763   3.5597   3.8342
     9.2716   9.4713  16.2560  16.4055

     occupation numbers 
     1.0000   1.0000   1.0000   1.0000   1.0000   1.0000   1.0000   1.0000
     0.0000   0.0000   0.0000   0.0000

          k = 0.2083-0.4090 0.0313 (  2418 PWs)   bands (ev):

   -10.4589 -10.2853  -2.8192  -2.7868  -0.9749  -0.9219   2.0072   3.4821
    10.3704  10.8912  13.8979  16.9935

     occupation numbers 
     1.0000   1.0000   1.0000   1.0000   1.0000   1.0000   1.0000   1.0000
     0.0000   0.0000   0.0000   0.0000

          k = 0.2083-0.4090 0.0940 (  2414 PWs)   bands (ev):

   -10.4363 -10.3091  -2.8165  -2.7928  -0.9699  -0.9312   2.1910   3.2678
    10.3527  10.7615  14.4822  16.7582

     occupation numbers 
     1.0000   1.0000   1.0000   1.0000   1.0000   1.0000   1.0000   1.0000
     0.0000   0.0000   0.0000   0.0000

          k = 0.2083-0.4090 0.1566 (  2409 PWs)   bands (ev):

   -10.3966 -10.3500  -2.8105  -2.8019  -0.9596  -0.9455   2.5175   2.9107
    10.4132  10.5711  15.3772  16.2284

     occupation numbers 
     1.0000   1.0000   1.0000   1.0000   1.0000   1.0000   1.0000   1.0000
     0.0000   0.0000   0.0000   0.0000

          k = 0.2083-0.3127 0.0313 (  2421 PWs)   bands (ev):

   -11.2400 -11.0195  -1.7438  -1.7191  -0.0172   0.0365   0.8368   2.5730
    11.7586  12.0390  12.5964  16.5840

     occupation numbers 
     1.0000   1.0000   1.0000   1.0000   1.0000   1.0000   1.0000   1.0000
     0.0000   0.0000   0.0000   0.0000

          k = 0.2083-0.3127 0.0940 (  2419 PWs)   bands (ev):

   -11.2116 -11.0503  -1.7435  -1.7250  -0.0122   0.0261   1.0464   2.3071
    11.5918  11.9178  13.4261  16.5087

     occupation numbers 
     1.0000   1.0000   1.0000   1.0000   1.0000   1.0000   1.0000   1.0000
     0.0000   0.0000   0.0000   0.0000

          k = 0.2083-0.3127 0.1566 (  2410 PWs)   bands (ev):

   -11.1616 -11.1025  -1.7404  -1.7334  -0.0021   0.0117   1.4202   1.8780
    11.6057  11.7464  14.5517  15.7360

     occupation numbers 
     1.0000   1.0000   1.0000   1.0000   1.0000   1.0000   1.0000   1.0000
     0.0000   0.0000   0.0000   0.0000

          k = 0.2083-0.2165 0.0313 (  2422 PWs)   bands (ev):

   -11.8972 -11.6469  -0.7316  -0.6813  -0.1012   1.0690   1.1231   1.7840
    11.3935  12.9014  13.3722  15.4332

     occupation numbers 
     1.0000   1.0000   1.0000   1.0000   1.0000   1.0000   1.0000   1.0000
     0.0000   0.0000   0.0000   0.0000

          k = 0.2083-0.2165 0.0940 (  2414 PWs)   bands (ev):

   -11.8652 -11.6820  -0.7357  -0.6934   0.1254   1.0747   1.1145   1.4921
    11.7201  12.7910  13.6814  15.3986

     occupation numbers 
     1.0000   1.0000   1.0000   1.0000   1.0000   1.0000   1.0000   1.0000
     0.0000   0.0000   0.0000   0.0000

          k = 0.2083-0.2165 0.1566 (  2413 PWs)   bands (ev):

   -11.8086 -11.7416  -0.7290  -0.7121   0.5221   0.9915   1.0990   1.1250
    12.1552  12.5294  14.3740  15.1290

     occupation numbers 
     1.0000   1.0000   1.0000   1.0000   1.0000   1.0000   1.0000   1.0000
     0.0000   0.0000   0.0000   0.0000

          k = 0.2083-0.1203 0.0313 (  2410 PWs)   bands (ev):

   -12.3422 -12.0741  -0.7279   0.2349   0.2789   1.2445   1.7632   1.8136
    10.7225  13.5368  14.4937  15.0928

     occupation numbers 
     1.0000   1.0000   1.0000   1.0000   1.0000   1.0000   1.0000   1.0000
     0.0000   0.0000   0.0000   0.0000

          k = 0.2083-0.1203 0.0940 (  2413 PWs)   bands (ev):

   -12.3081 -12.1119  -0.5177   0.2468   0.2621   0.9448   1.7699   1.8067
    11.2191  13.2844  14.6466  15.1147

     occupation numbers 
     1.0000   1.0000   1.0000   1.0000   1.0000   1.0000   1.0000   1.0000
     0.0000   0.0000   0.0000   0.0000

          k = 0.2083-0.1203 0.1566 (  2413 PWs)   bands (ev):

   -12.2477 -12.1759  -0.1495   0.1678   0.3083   0.5194   1.7816   1.7949
    11.9977  12.7566  14.9196  15.0988

     occupation numbers 
     1.0000   1.0000   1.0000   1.0000   1.0000   1.0000   1.0000   1.0000
     0.0000   0.0000   0.0000   0.0000

          k = 0.2917 0.5052 0.0313 (  2398 PWs)   bands (ev):

    -9.5066  -9.4362  -3.6304  -3.5316  -2.2405  -2.2153   3.6727   4.3958
     9.1039   9.5219  15.2806  16.1987

     occupation numbers 
     1.0000   1.0000   1.0000   1.0000   1.0000   1.0000   1.0000   1.0000
     0.0000   0.0000   0.0000   0.0000

          k = 0.2917 0.5052 0.0940 (  2393 PWs)   bands (ev):

    -9.4970  -9.4456  -3.6178  -3.5457  -2.2400  -2.2216   3.7879   4.3239
     9.0688   9.3874  15.5179  16.4709

     occupation numbers 
     1.0000   1.0000   1.0000   1.0000   1.0000   1.0000   1.0000   1.0000
     0.0000   0.0000   0.0000   0.0000

          k = 0.2917 0.5052 0.1566 (  2396 PWs)   bands (ev):

    -9.4807  -9.4619  -3.5957  -3.5694  -2.2370  -2.2303   3.9778   4.1765
     9.0855   9.2065  15.9514  16.4288

     occupation numbers 
     1.0000   1.0000   1.0000   1.0000   1.0000   1.0000   1.0000   1.0000
     0.0000   0.0000   0.0000   0.0000

          k = 0.2917 0.6014 0.0313 (  2396 PWs)   bands (ev):

    -9.3565  -9.3231  -3.6865  -3.5564  -2.4782  -2.4520   4.0372   4.4224
     9.0017   9.2792  15.0043  16.8898

     occupation numbers 
     1.0000   1.0000   1.0000   1.0000   1.0000   1.0000   1.0000   1.0000
     0.0000   0.0000   0.0000   0.0000

          k = 0.2917 0.6014 0.0940 (  2392 PWs)   bands (ev):

    -9.3519  -9.3274  -3.6697  -3.5745  -2.4778  -2.4585   4.1181   4.4052
     8.9424   9.1524  15.2713  17.0384

     occupation numbers 
     1.0000   1.0000   1.0000   1.0000   1.0000   1.0000   1.0000   1.0000
     0.0000   0.0000   0.0000   0.0000

          k = 0.2917 0.6014 0.1566 (  2389 PWs)   bands (ev):

    -9.3439  -9.3350  -3.6401  -3.6053  -2.4747  -2.4676   4.2403   4.3474
     8.9164   8.9958  15.7798  16.4595

     occupation numbers 
     1.0000   1.0000   1.0000   1.0000   1.0000   1.0000   1.0000   1.0000
     0.0000   0.0000   0.0000   0.0000

          k = 0.2917 0.6976 0.0313 (  2399 PWs)   bands (ev):

    -9.7615  -9.6537  -3.5142  -3.4454  -1.8306  -1.7858   3.1710   4.2057
     9.3470   9.8976  15.4212  15.8044

     occupation numbers 
     1.0000   1.0000   1.0000   1.0000   1.0000   1.0000   1.0000   1.0000
     0.0000   0.0000   0.0000   0.0000

          k = 0.2917 0.6976 0.0940 (  2403 PWs)   bands (ev):

    -9.7472  -9.6684  -3.5062  -3.4560  -1.8270  -1.7942   3.3151   4.0774
     9.3375   9.7557  15.8124  15.9719

     occupation numbers 
     1.0000   1.0000   1.0000   1.0000   1.0000   1.0000   1.0000   1.0000
     0.0000   0.0000   0.0000   0.0000

          k = 0.2917 0.6976 0.1566 (  2409 PWs)   bands (ev):

    -9.7224  -9.6935  -3.4915  -3.4731  -1.8191  -1.8071   3.5631   3.8438
     9.3956   9.5537  16.2133  16.2406

     occupation numbers 
     1.0000   1.0000   1.0000   1.0000   1.0000   1.0000   1.0000   1.0000
     0.0000   0.0000   0.0000   0.0000

          k = 0.2917-0.3608 0.0313 (  2413 PWs)   bands (ev):

   -10.4239 -10.2556  -3.0964  -3.0323  -0.7107  -0.6463   2.0659   3.5157
    10.1220  10.8255  13.9001  16.4376

     occupation numbers 
     1.0000   1.0000   1.0000   1.0000   1.0000   1.0000   1.0000   1.0000
     0.0000   0.0000   0.0000   0.0000

          k = 0.2917-0.3608 0.0940 (  2407 PWs)   bands (ev):

   -10.4019 -10.2787  -3.0899  -3.0428  -0.7037  -0.6564   2.2473   3.3065
    10.1333  10.6630  14.4593  16.3627

     occupation numbers 
     1.0000   1.0000   1.0000   1.0000   1.0000   1.0000   1.0000   1.0000
     0.0000   0.0000   0.0000   0.0000

          k = 0.2917-0.3608 0.1566 (  2409 PWs)   bands (ev):

   -10.3635 -10.3184  -3.0770  -3.0597  -0.6903  -0.6730   2.5693   2.9561
    10.2315  10.4304  15.2978  16.0283

     occupation numbers 
     1.0000   1.0000   1.0000   1.0000   1.0000   1.0000   1.0000   1.0000
     0.0000   0.0000   0.0000   0.0000

          k = 0.2917-0.2646 0.0313 (  2419 PWs)   bands (ev):

   -11.0828 -10.8729  -2.4304  -2.3564   0.4077   0.4689   1.0702   2.7549
    11.0859  11.7898  12.6615  15.1459

     occupation numbers 
     1.0000   1.0000   1.0000   1.0000   1.0000   1.0000   1.0000   1.0000
     0.0000   0.0000   0.0000   0.0000

          k = 0.2917-0.2646 0.0940 (  2411 PWs)   bands (ev):

   -11.0557 -10.9021  -2.4235  -2.3690   0.4145   0.4597   1.2731   2.4981
    11.0517  11.5818  13.3693  15.1137

     occupation numbers 
     1.0000   1.0000   1.0000   1.0000   1.0000   1.0000   1.0000   1.0000
     0.0000   0.0000   0.0000   0.0000

          k = 0.2917-0.2646 0.1566 (  2417 PWs)   bands (ev):

   -11.0081 -10.9518  -2.4091  -2.3890   0.4277   0.4444   1.6363   2.0817
    11.1352  11.3374  14.2832  14.9182

     occupation numbers 
     1.0000   1.0000   1.0000   1.0000   1.0000   1.0000   1.0000   1.0000
     0.0000   0.0000   0.0000   0.0000

          k = 0.2917-0.1684 0.0313 (  2420 PWs)   bands (ev):

   -11.5960 -11.3597  -1.5831  -1.5127   0.3262   1.0647   1.1209   2.1451
    11.6966  12.1812  12.7409  14.7292

     occupation numbers 
     1.0000   1.0000   1.0000   1.0000   1.0000   1.0000   1.0000   1.0000
     0.0000   0.0000   0.0000   0.0000

          k = 0.2917-0.1684 0.0940 (  2414 PWs)   bands (ev):

   -11.5656 -11.3928  -1.5785  -1.5258   0.5414   1.0721   1.1133   1.8609
    11.7037  12.2575  13.1505  14.7059

     occupation numbers 
     1.0000   1.0000   1.0000   1.0000   1.0000   1.0000   1.0000   1.0000
     0.0000   0.0000   0.0000   0.0000

          k = 0.2917-0.1684 0.1566 (  2414 PWs)   bands (ev):

   -11.5121 -11.4489  -1.5661  -1.5463   0.9285   1.0849   1.1001   1.4073
    11.8510  12.0743  13.9590  14.5388

     occupation numbers 
     1.0000   1.0000   1.0000   1.0000   1.0000   1.0000   1.0000   1.0000
     0.0000   0.0000   0.0000   0.0000

          k = 0.3750 0.6495 0.0313 (  2402 PWs)   bands (ev):

    -9.4312  -9.3894  -3.8450  -3.7388  -2.1312  -2.0740   3.8543   4.3967
     8.9167   9.4170  15.3506  16.6295

     occupation numbers 
     1.0000   1.0000   1.0000   1.0000   1.0000   1.0000   1.0000   1.0000
     0.0000   0.0000   0.0000   0.0000

          k = 0.3750 0.6495 0.0940 (  2400 PWs)   bands (ev):

    -9.4255  -9.3948  -3.8321  -3.7544  -2.1259  -2.0840   3.9515   4.3552
     8.8893   9.2627  15.5827  16.9762

     occupation numbers 
     1.0000   1.0000   1.0000   1.0000   1.0000   1.0000   1.0000   1.0000
     0.0000   0.0000   0.0000   0.0000

          k = 0.3750 0.6495 0.1566 (  2401 PWs)   bands (ev):

    -9.4157  -9.4044  -3.8088  -3.7803  -2.1150  -2.0996   4.1060   4.2562
     8.9177   9.0571  16.0223  16.5931

     occupation numbers 
     1.0000   1.0000   1.0000   1.0000   1.0000   1.0000   1.0000   1.0000
     0.0000   0.0000   0.0000   0.0000

          k = 0.3750 0.7457 0.0313 (  2411 PWs)   bands (ev):

    -9.7764  -9.6892  -4.0340  -3.9570  -1.0532  -0.9823   3.1704   4.1418
     8.9126   9.8483  15.2178  16.3044

     occupation numbers 
     1.0000   1.0000   1.0000   1.0000   1.0000   1.0000   1.0000   1.0000
     0.0000   0.0000   0.0000   0.0000

          k = 0.3750 0.7457 0.0940 (  2406 PWs)   bands (ev):

    -9.7647  -9.7008  -4.0260  -3.9696  -1.0450  -0.9930   3.3085   4.0258
     8.9499   9.6400  15.5523  16.2905

     occupation numbers 
     1.0000   1.0000   1.0000   1.0000   1.0000   1.0000   1.0000   1.0000
     0.0000   0.0000   0.0000   0.0000

          k = 0.3750 0.7457 0.1566 (  2413 PWs)   bands (ev):

    -9.7444  -9.7212  -4.0104  -3.9898  -1.0300  -1.0108   3.5447   3.8096
     9.0864   9.3409  15.9769  16.2176

     occupation numbers 
     1.0000   1.0000   1.0000   1.0000   1.0000   1.0000   1.0000   1.0000
     0.0000   0.0000   0.0000   0.0000

          k = 0.3750-0.3127 0.0313 (  2416 PWs)   bands (ev):

   -10.2647 -10.1225  -3.8164  -3.7372  -0.0174   0.0476   2.3382   3.6632
     9.3342  10.4588  13.8135  14.9528

     occupation numbers 
     1.0000   1.0000   1.0000   1.0000   1.0000   1.0000   1.0000   1.0000
     0.0000   0.0000   0.0000   0.0000

          k = 0.3750-0.3127 0.0940 (  2415 PWs)   bands (ev):

   -10.2460 -10.1420  -3.8083  -3.7503  -0.0093   0.0384   2.5075   3.4783
     9.3996  10.2212  14.1939  14.9481

     occupation numbers 
     1.0000   1.0000   1.0000   1.0000   1.0000   1.0000   1.0000   1.0000
     0.0000   0.0000   0.0000   0.0000

          k = 0.3750-0.3127 0.1566 (  2414 PWs)   bands (ev):

   -10.2133 -10.1753  -3.7925  -3.7712   0.0052   0.0227   2.8068   3.1623
     9.5818   9.8824  14.6416  14.8831

     occupation numbers 
     1.0000   1.0000   1.0000   1.0000   1.0000   1.0000   1.0000   1.0000
     0.0000   0.0000   0.0000   0.0000

          k = 0.3750-0.2165 0.0313 (  2421 PWs)   bands (ev):

   -10.7377 -10.5535  -3.2342  -3.1502   0.5357   0.5956   1.5927   3.1476
    10.1339  11.1723  12.9649  14.4721

     occupation numbers 
     1.0000   1.0000   1.0000   1.0000   1.0000   1.0000   1.0000   1.0000
     0.0000   0.0000   0.0000   0.0000

          k = 0.3750-0.2165 0.0940 (  2412 PWs)   bands (ev):

   -10.7137 -10.5789  -3.2257  -3.1639   0.5436   0.5874   1.7819   2.9160
    10.1790  10.9335  13.4682  14.4616

     occupation numbers 
     1.0000   1.0000   1.0000   1.0000   1.0000   1.0000   1.0000   1.0000
     0.0000   0.0000   0.0000   0.0000

          k = 0.3750-0.2165 0.1566 (  2423 PWs)   bands (ev):

   -10.6718 -10.6225  -3.2089  -3.1861   0.5573   0.5733   2.1210   2.5346
    10.3387  10.6149  14.0543  14.3723

     occupation numbers 
     1.0000   1.0000   1.0000   1.0000   1.0000   1.0000   1.0000   1.0000
     0.0000   0.0000   0.0000   0.0000

          k = 0.4583 0.7939 0.0313 (  2408 PWs)   bands (ev):

    -9.8553  -9.7882  -4.3898  -4.3254  -0.1632  -0.0970   3.0544   4.0121
     8.5565   9.8192  14.3615  14.8857

     occupation numbers 
     1.0000   1.0000   1.0000   1.0000   1.0000   1.0000   1.0000   1.0000
     0.0000   0.0000   0.0000   0.0000

          k = 0.4583 0.7939 0.0940 (  2416 PWs)   bands (ev):

    -9.8462  -9.7971  -4.3840  -4.3368  -0.1549  -0.1063   3.1904   3.8983
     8.6280   9.5507  14.5488  14.8925

     occupation numbers 
     1.0000   1.0000   1.0000   1.0000   1.0000   1.0000   1.0000   1.0000
     0.0000   0.0000   0.0000   0.0000

          k = 0.4583 0.7939 0.1566 (  2414 PWs)   bands (ev):

    -9.8305  -9.8125  -4.3719  -4.3546  -0.1400  -0.1222   3.4238   3.6855
     8.8278   9.1651  14.7606  14.8708

     occupation numbers 
     1.0000   1.0000   1.0000   1.0000   1.0000   1.0000   1.0000   1.0000
     0.0000   0.0000   0.0000   0.0000

          k = 0.4583-0.2646 0.0313 (  2415 PWs)   bands (ev):

   -10.0417  -9.9434  -4.3108  -4.2418   0.2549   0.3166   2.7292   3.8505
     8.7000  10.0324  13.7656  14.3403

     occupation numbers 
     1.0000   1.0000   1.0000   1.0000   1.0000   1.0000   1.0000   1.0000
     0.0000   0.0000   0.0000   0.0000

          k = 0.4583-0.2646 0.0940 (  2422 PWs)   bands (ev):

   -10.0286  -9.9566  -4.3045  -4.2539   0.2630   0.3083   2.8797   3.7052
     8.7833   9.7535  13.9739  14.3459

     occupation numbers 
     1.0000   1.0000   1.0000   1.0000   1.0000   1.0000   1.0000   1.0000
     0.0000   0.0000   0.0000   0.0000

          k = 0.4583-0.2646 0.1566 (  2420 PWs)   bands (ev):

   -10.0057  -9.9795  -4.2913  -4.2728   0.2773   0.2938   3.1421   3.4462
     9.0007   9.3544  14.2018  14.3200

     occupation numbers 
     1.0000   1.0000   1.0000   1.0000   1.0000   1.0000   1.0000   1.0000
     0.0000   0.0000   0.0000   0.0000

     highest occupied, lowest unoccupied level (ev):     4.4224    8.5565

!    total energy              =     -53.18617824 Ry
     Harris-Foulkes estimate   =     -53.18617824 Ry
     estimated scf accuracy    <          1.1E-11 Ry

     The total energy is the sum of the following terms:

     one-electron contribution =     -16.65978300 Ry
     hartree contribution      =      16.40361169 Ry
     xc contribution           =     -16.33682285 Ry
     ewald contribution        =     -36.59318407 Ry

     convergence has been achieved in  11 iterations

     Forces acting on atoms (cartesian axes, Ry/au):

     atom    1 type  1   force =     0.00000000    0.00000000    0.00000000
     atom    2 type  1   force =    -0.00000000   -0.00000000    0.00000000
     atom    3 type  2   force =     0.00000000    0.00000000   -0.00000000
     atom    4 type  2   force =     0.00000000    0.00000000   -0.00000000
     The non-local contrib.  to forces
     atom    1 type  1   force =    -0.00000000   -0.00000000    0.00000000
     atom    2 type  1   force =     0.00000000   -0.00000000    0.00000000
     atom    3 type  2   force =     0.00000000    0.00000000    0.00000000
     atom    4 type  2   force =     0.00000000    0.00000000    0.00000000
     The ionic contribution  to forces
     atom    1 type  1   force =     0.00000002   -0.00000001   -0.00000000
     atom    2 type  1   force =    -0.00000002    0.00000001    0.00000000
     atom    3 type  2   force =     0.00000002   -0.00000001    0.00000000
     atom    4 type  2   force =    -0.00000002    0.00000001   -0.00000000
     The local contribution  to forces
     atom    1 type  1   force =    -0.00000000    0.00000000    0.00000000
     atom    2 type  1   force =     0.00000000   -0.00000000    0.00000000
     atom    3 type  2   force =     0.00000002   -0.00000001   -0.00000001
     atom    4 type  2   force =    -0.00000006    0.00000003   -0.00000001
     The core correction contribution to forces
     atom    1 type  1   force =    -0.00000000    0.00000000    0.00000000
     atom    2 type  1   force =     0.00000000   -0.00000000    0.00000000
     atom    3 type  2   force =     0.00000000    0.00000000    0.00000000
     atom    4 type  2   force =     0.00000000    0.00000000    0.00000000
     The Hubbard contrib.    to forces
     atom    1 type  1   force =     0.00000000    0.00000000    0.00000000
     atom    2 type  1   force =     0.00000000    0.00000000    0.00000000
     atom    3 type  2   force =     0.00000000    0.00000000    0.00000000
     atom    4 type  2   force =     0.00000000    0.00000000    0.00000000
     The SCF correction term to forces
     atom    1 type  1   force =     0.00000000   -0.00000000    0.00000000
     atom    2 type  1   force =    -0.00000000    0.00000000    0.00000000
     atom    3 type  2   force =    -0.00000000    0.00000000    0.00000000
     atom    4 type  2   force =     0.00000000   -0.00000000    0.00000000

     Total force =     0.000000     Total SCF correction =     0.000000


     Computing stress (Cartesian axis) and pressure

          total   stress  (Ry/bohr**3)                   (kbar)     P=      -75.70
  -0.00070604  -0.00000000   0.00000000         -103.86       -0.00        0.00
  -0.00000000  -0.00070604   0.00000000           -0.00     -103.86        0.00
   0.00000000   0.00000000  -0.00013163            0.00        0.00      -19.36

     kinetic stress (kbar)  14598.57     -0.00      0.00
                               -0.00  14598.57      0.00
                               -0.00     -0.00  15904.60

     local   stress (kbar) -19654.86     -0.00     -0.00
                               -0.00 -19654.86     -0.00
                               -0.00     -0.00  19614.42

     nonloc. stress (kbar)  -1635.69     -0.00      0.00
                               -0.00  -1635.69      0.00
                                0.00      0.00  -1615.64

     hartree stress (kbar)   7390.42     -0.00      0.00
                               -0.00   7390.42      0.00
                                0.00      0.00  -4894.88

     exc-cor stress (kbar)  -1775.69      0.00      0.00
                                0.00  -1775.69      0.00
                                0.00      0.00  -1775.69

     corecor stress (kbar)  -1097.70     -0.00     -0.00
                               -0.00  -1097.70     -0.00
                               -0.00     -0.00  -1056.41

     ewald   stress (kbar)   2071.08      0.00      0.00
                                0.00   2071.08      0.00
                                0.00      0.00 -26195.77

     hubbard stress (kbar)      0.00      0.00      0.00
                                0.00      0.00      0.00
                                0.00      0.00      0.00

     london  stress (kbar)      0.00      0.00      0.00
                                0.00      0.00      0.00
                                0.00      0.00      0.00

     DFT-D3  stress (kbar)      0.00      0.00      0.00
                                0.00      0.00      0.00
                                0.00      0.00      0.00

     XDM     stress (kbar)      0.00      0.00      0.00
                                0.00      0.00      0.00
                                0.00      0.00      0.00

     dft-nl  stress (kbar)      0.00      0.00      0.00
                                0.00      0.00      0.00
                                0.00      0.00      0.00

     TS-vdW  stress (kbar)      0.00      0.00      0.00
                                0.00      0.00      0.00
                                0.00      0.00      0.00



     Writing output data file ./BN.save/
 
     init_run     :      0.87s CPU      0.93s WALL (       1 calls)
     electrons    :      7.04s CPU      7.20s WALL (       1 calls)
     forces       :      0.06s CPU      0.07s WALL (       1 calls)
     stress       :      0.20s CPU      0.21s WALL (       1 calls)

     Called by init_run:
     wfcinit      :      0.81s CPU      0.87s WALL (       1 calls)
     wfcinit:atom :      0.02s CPU      0.04s WALL (      16 calls)
     wfcinit:wfcr :      0.72s CPU      0.75s WALL (      16 calls)
     potinit      :      0.01s CPU      0.01s WALL (       1 calls)
     hinit0       :      0.04s CPU      0.05s WALL (       1 calls)

     Called by electrons:
     c_bands      :      6.17s CPU      6.25s WALL (      11 calls)
     sum_band     :      0.77s CPU      0.78s WALL (      11 calls)
     v_of_rho     :      0.02s CPU      0.02s WALL (      12 calls)
     v_h          :      0.01s CPU      0.01s WALL (      12 calls)
     v_xc         :      0.02s CPU      0.02s WALL (      14 calls)
     mix_rho      :      0.03s CPU      0.03s WALL (      11 calls)

     Called by c_bands:
     init_us_2    :      0.17s CPU      0.18s WALL (     400 calls)
     cegterg      :      4.70s CPU      4.76s WALL (     176 calls)

     Called by sum_band:

     Called by *egterg:
     h_psi        :      4.48s CPU      4.56s WALL (     732 calls)
     g_psi        :      0.02s CPU      0.02s WALL (     540 calls)
     cdiaghg      :      0.17s CPU      0.18s WALL (     716 calls)
     cegterg:over :      0.30s CPU      0.30s WALL (     540 calls)
     cegterg:upda :      0.21s CPU      0.21s WALL (     540 calls)
     cegterg:last :      0.06s CPU      0.06s WALL (     176 calls)

     Called by h_psi:
     h_psi:calbec :      0.23s CPU      0.24s WALL (     732 calls)
     vloc_psi     :      3.99s CPU      4.04s WALL (     732 calls)
     add_vuspsi   :      0.23s CPU      0.23s WALL (     732 calls)

     General routines
     calbec       :      0.26s CPU      0.27s WALL (     812 calls)
     fft          :      0.02s CPU      0.02s WALL (      43 calls)
     ffts         :      0.00s CPU      0.00s WALL (      11 calls)
     fftw         :      4.10s CPU      4.15s WALL (   16380 calls)
 
     Parallel routines
 
     PWSCF        :      8.25s CPU      8.62s WALL

 
   This run was terminated on:  16:56:56  13Aug2021            

=------------------------------------------------------------------------------=
   JOB DONE.
=------------------------------------------------------------------------------=
