
     Program PHONON v.6.5 starts on 14Aug2021 at 16:55:20 

     This program is part of the open-source Quantum ESPRESSO suite
     for quantum simulation of materials; please cite
         "P. Giannozzi et al., J. Phys.:Condens. Matter 21 395502 (2009);
         "P. Giannozzi et al., J. Phys.:Condens. Matter 29 465901 (2017);
          URL http://www.quantum-espresso.org", 
     in publications or presentations arising from this work. More details at
     http://www.quantum-espresso.org/quote

     Parallel version (MPI), running on     8 processors

     MPI processes distributed on     1 nodes
     K-points division:     npool     =       8

     Reading xml data from directory:

     ./BN.save/

     IMPORTANT: XC functional enforced from input :
     Exchange-correlation= PZ
                           (   1   1   0   0   0   0   0)
     Any further DFT definition will be discarded
     Please, verify this is what you really want

               file b.cpi.UPF: wavefunction(s)  3d 4f renormalized
               file n.cpi.UPF: wavefunction(s)  3d 4f renormalized
 
     G-vector sticks info
     --------------------
     sticks:   dense  smooth     PW     G-vecs:    dense   smooth      PW
     Sum         433     433    151                19375    19375    3645
 

     Check: negative core charge=   -0.000032
     Reading collected, re-writing distributed wavefunctions
       19 /  76 q-points for this run, from 58 to 76:
       N       xq(1)         xq(2)         xq(3) 
       1   0.000000000   0.000000000   0.000000000
       2   0.000000000   0.000000000   0.062651374
       3   0.000000000   0.000000000   0.125302748
       4   0.000000000   0.000000000  -0.187954122
       5   0.000000000   0.096225045   0.000000000
       6   0.000000000   0.096225045   0.062651374
       7   0.000000000   0.096225045   0.125302748
       8   0.000000000   0.096225045  -0.187954122
       9   0.000000000   0.192450090   0.000000000
      10   0.000000000   0.192450090   0.062651374
      11   0.000000000   0.192450090   0.125302748
      12   0.000000000   0.192450090  -0.187954122
      13   0.000000000   0.288675135   0.000000000
      14   0.000000000   0.288675135   0.062651374
      15   0.000000000   0.288675135   0.125302748
      16   0.000000000   0.288675135  -0.187954122
      17   0.000000000   0.384900179   0.000000000
      18   0.000000000   0.384900179   0.062651374
      19   0.000000000   0.384900179   0.125302748
      20   0.000000000   0.384900179  -0.187954122
      21   0.000000000   0.481125224   0.000000000
      22   0.000000000   0.481125224   0.062651374
      23   0.000000000   0.481125224   0.125302748
      24   0.000000000   0.481125224  -0.187954122
      25   0.000000000  -0.577350269   0.000000000
      26   0.000000000  -0.577350269   0.062651374
      27   0.000000000  -0.577350269   0.125302748
      28   0.000000000  -0.577350269  -0.187954122
      29   0.083333333   0.144337567   0.000000000
      30   0.083333333   0.144337567   0.062651374
      31   0.083333333   0.144337567   0.125302748
      32   0.083333333   0.144337567  -0.187954122
      33   0.083333333   0.240562612   0.000000000
      34   0.083333333   0.240562612   0.062651374
      35   0.083333333   0.240562612   0.125302748
      36   0.083333333   0.240562612  -0.187954122
      37   0.083333333   0.336787657   0.000000000
      38   0.083333333   0.336787657   0.062651374
      39   0.083333333   0.336787657   0.125302748
      40   0.083333333   0.336787657  -0.187954122
      41   0.083333333   0.433012702   0.000000000
      42   0.083333333   0.433012702   0.062651374
      43   0.083333333   0.433012702   0.125302748
      44   0.083333333   0.433012702  -0.187954122
      45   0.083333333   0.529237747   0.000000000
      46   0.083333333   0.529237747   0.062651374
      47   0.083333333   0.529237747   0.125302748
      48   0.083333333   0.529237747  -0.187954122
      49   0.166666667   0.288675135   0.000000000
      50   0.166666667   0.288675135   0.062651374
      51   0.166666667   0.288675135   0.125302748
      52   0.166666667   0.288675135  -0.187954122
      53   0.166666667   0.384900179   0.000000000
      54   0.166666667   0.384900179   0.062651374
      55   0.166666667   0.384900179   0.125302748
      56   0.166666667   0.384900179  -0.187954122
      57   0.166666667   0.481125224   0.000000000
      58   0.166666667   0.481125224   0.062651374
      59   0.166666667   0.481125224   0.125302748
      60   0.166666667   0.481125224  -0.187954122
      61   0.166666667   0.577350269   0.000000000
      62   0.166666667   0.577350269   0.062651374
      63   0.166666667   0.577350269   0.125302748
      64   0.166666667   0.577350269  -0.187954122
      65   0.250000000   0.433012702   0.000000000
      66   0.250000000   0.433012702   0.062651374
      67   0.250000000   0.433012702   0.125302748
      68   0.250000000   0.433012702  -0.187954122
      69   0.250000000   0.529237747   0.000000000
      70   0.250000000   0.529237747   0.062651374
      71   0.250000000   0.529237747   0.125302748
      72   0.250000000   0.529237747  -0.187954122
      73   0.333333333   0.577350269   0.000000000
      74   0.333333333   0.577350269   0.062651374
      75   0.333333333   0.577350269   0.125302748
      76   0.333333333   0.577350269  -0.187954122
 

     Calculation of q =    0.1666667   0.4811252   0.0626514

     Bands found: reading from ./_ph0/BN.q_58/

     Reading xml data from directory:

     ./_ph0/BN.q_58/BN.save/
     Message from routine qexsd_readschema :
     input info not found or not readable in xml file
     Message from routine readpp:
     file ./_ph0/BN.q_58/BN.save/b.cpi.UPF not found
     Message from routine readpp:
     file ./_ph0/BN.q_58/BN.save/n.cpi.UPF not found

     IMPORTANT: XC functional enforced from input :
     Exchange-correlation= PZ
                           (   1   1   0   0   0   0   0)
     Any further DFT definition will be discarded
     Please, verify this is what you really want

               file b.cpi.UPF: wavefunction(s)  3d 4f renormalized
               file n.cpi.UPF: wavefunction(s)  3d 4f renormalized
 
     G-vector sticks info
     --------------------
     sticks:   dense  smooth     PW     G-vecs:    dense   smooth      PW
     Sum         433     433    163                19375    19375    4487
 

     Check: negative core charge=   -0.000032
     read_file_new: Wavefunctions not in collected format?!?
     read_file: Wavefunctions in collected format not available

     Restart in Phonon calculation

     phonons for BN                                                             

     bravais-lattice index     =            4
     lattice parameter (alat)  =       4.7319  a.u.
     unit-cell volume          =     244.0890 (a.u.)^3
     number of atoms/cell      =            4
     number of atomic types    =            2
     kinetic-energy cut-off    =      70.0000  Ry
     charge density cut-off    =     280.0000  Ry
     convergence threshold     =      1.0E-14
     beta                      =       0.7000
     number of iterations used =            4
     Exchange-correlation= PZ
                           (   1   1   0   0   0   0   0)


     celldm(1)=    4.73187  celldm(2)=    0.00000  celldm(3)=    2.66022
     celldm(4)=    0.00000  celldm(5)=    0.00000  celldm(6)=    0.00000

     crystal axes: (cart. coord. in units of alat)
               a(1) = (  1.0000  0.0000  0.0000 )  
               a(2) = ( -0.5000  0.8660  0.0000 )  
               a(3) = (  0.0000  0.0000  2.6602 )  

     reciprocal axes: (cart. coord. in units 2 pi/alat)
               b(1) = (  1.0000  0.5774  0.0000 )  
               b(2) = (  0.0000  1.1547  0.0000 )  
               b(3) = (  0.0000  0.0000  0.3759 )  


     Atoms inside the unit cell: 

     Cartesian axes

     site n.  atom      mass           positions (alat units)
        1     B   10.8110   tau(    1) = (   -0.00000    0.57735    0.66506  )
        2     B   10.8110   tau(    2) = (    0.50000    0.28868    1.99517  )
        3     N   14.0070   tau(    3) = (   -0.00000    0.57735    1.99517  )
        4     N   14.0070   tau(    4) = (    0.50000    0.28868    0.66506  )

     Computing dynamical matrix for 
                    q = (   0.1666667   0.4811252   0.0626514 )
 
     No symmetry!

     G cutoff =  158.8052  (  19375 G-vectors)     FFT grid: ( 25, 25, 72)
     number of k points=  5184

     PseudoPot. # 1 for B  read from file:
     ./b.cpi.UPF
     MD5 check sum: aadced629ac320abbac2d4088521b25e
     Pseudo is Norm-conserving + core correction, Zval =  3.0
     Generated by new atomic code, or converted to UPF format
     Using radial grid of  453 points,  3 beta functions with: 
                l(1) =   0
                l(2) =   1
                l(3) =   2

     PseudoPot. # 2 for N  read from file:
     ./n.cpi.UPF
     MD5 check sum: ff6dad263d6aed986b71703111ab3f52
     Pseudo is Norm-conserving, Zval =  5.0
     Generated by new atomic code, or converted to UPF format
     Using radial grid of  467 points,  3 beta functions with: 
                l(1) =   0
                l(2) =   1
                l(3) =   2

     Mode symmetry, C_1 (1)     point group:


     Atomic displacements:
     There are  12 irreducible representations

     Representation     1      1 modes -A  Done

     Representation     2      1 modes -A  Done

     Representation     3      1 modes -A  Done

     Representation     4      1 modes -A  Done

     Representation     5      1 modes -A  Done

     Representation     6      1 modes -A  Done

     Representation     7      1 modes -A  Done

     Representation     8      1 modes -A  Done

     Representation     9      1 modes -A  Done

     Representation    10      1 modes -A  Done

     Representation    11      1 modes -A  To be done

     Representation    12      1 modes -A  To be done


     PHONON       :      4.63s CPU     22.33s WALL



     Representation # 11 mode #  11

     Self-consistent Calculation

     End of self-consistent calculation

     Convergence has been achieved 


     Representation # 12 mode #  12

     Self-consistent Calculation

      iter #   1 total cpu time :    43.2 secs   av.it.:   6.0
      thresh= 1.000E-02 alpha_mix =  0.700 |ddv_scf|^2 =  6.522E-06

      iter #   2 total cpu time :    78.6 secs   av.it.:  10.3
      thresh= 2.554E-04 alpha_mix =  0.700 |ddv_scf|^2 =  7.915E-06

      iter #   3 total cpu time :   111.8 secs   av.it.:   9.5
      thresh= 2.813E-04 alpha_mix =  0.700 |ddv_scf|^2 =  4.534E-08

      iter #   4 total cpu time :   144.9 secs   av.it.:   9.7
      thresh= 2.129E-05 alpha_mix =  0.700 |ddv_scf|^2 =  2.171E-09

      iter #   5 total cpu time :   177.8 secs   av.it.:  10.0
      thresh= 4.660E-06 alpha_mix =  0.700 |ddv_scf|^2 =  2.107E-10

      iter #   6 total cpu time :   210.8 secs   av.it.:  10.1
      thresh= 1.452E-06 alpha_mix =  0.700 |ddv_scf|^2 =  5.718E-11

      iter #   7 total cpu time :   242.1 secs   av.it.:   9.8
      thresh= 7.562E-07 alpha_mix =  0.700 |ddv_scf|^2 =  3.514E-12

      iter #   8 total cpu time :   273.5 secs   av.it.:   9.9
      thresh= 1.874E-07 alpha_mix =  0.700 |ddv_scf|^2 =  5.258E-14

      iter #   9 total cpu time :   304.9 secs   av.it.:  10.1
      thresh= 2.293E-08 alpha_mix =  0.700 |ddv_scf|^2 =  8.759E-15

     End of self-consistent calculation

     Convergence has been achieved 
 
     Number of q in the star =   24
     List of q in the star:
          1   0.166666667   0.481125224   0.062651374
          2   0.166666667   0.481125224  -0.062651374
          3   0.333333333   0.384900179  -0.062651374
          4   0.333333333   0.384900179   0.062651374
          5  -0.166666667   0.481125224   0.062651374
          6   0.166666667  -0.481125224  -0.062651374
          7  -0.166666667   0.481125224  -0.062651374
          8  -0.166666667  -0.481125224  -0.062651374
          9   0.500000000   0.096225045   0.062651374
         10   0.500000000  -0.096225045   0.062651374
         11  -0.333333333  -0.384900179   0.062651374
         12  -0.500000000  -0.096225045   0.062651374
         13  -0.166666667  -0.481125224   0.062651374
         14   0.333333333  -0.384900179   0.062651374
         15   0.166666667  -0.481125224   0.062651374
         16  -0.500000000   0.096225045   0.062651374
         17  -0.333333333   0.384900179   0.062651374
         18   0.333333333  -0.384900179  -0.062651374
         19   0.500000000   0.096225045  -0.062651374
         20  -0.333333333   0.384900179  -0.062651374
         21  -0.333333333  -0.384900179  -0.062651374
         22   0.500000000  -0.096225045  -0.062651374
         23  -0.500000000  -0.096225045  -0.062651374
         24  -0.500000000   0.096225045  -0.062651374

     Diagonalizing the dynamical matrix

     q = (    0.166666667   0.481125224   0.062651374 ) 

 **************************************************************************
     freq (    1) =       9.114625 [THz] =     304.031179 [cm-1]
     freq (    2) =       9.267615 [THz] =     309.134366 [cm-1]
     freq (    3) =      18.818661 [THz] =     627.722950 [cm-1]
     freq (    4) =      19.425310 [THz] =     647.958592 [cm-1]
     freq (    5) =      20.380215 [THz] =     679.810807 [cm-1]
     freq (    6) =      20.453816 [THz] =     682.265873 [cm-1]
     freq (    7) =      30.501800 [THz] =    1017.430547 [cm-1]
     freq (    8) =      30.595626 [THz] =    1020.560241 [cm-1]
     freq (    9) =      37.209238 [THz] =    1241.166576 [cm-1]
     freq (   10) =      37.267589 [THz] =    1243.112970 [cm-1]
     freq (   11) =      38.690238 [THz] =    1290.567411 [cm-1]
     freq (   12) =      39.096657 [THz] =    1304.124102 [cm-1]
 **************************************************************************

     Mode symmetry, C_1 (1)     point group:

     freq (  1 -  1) =        304.0  [cm-1]   --> A                  
     freq (  2 -  2) =        309.1  [cm-1]   --> A                  
     freq (  3 -  3) =        627.7  [cm-1]   --> A                  
     freq (  4 -  4) =        648.0  [cm-1]   --> A                  
     freq (  5 -  5) =        679.8  [cm-1]   --> A                  
     freq (  6 -  6) =        682.3  [cm-1]   --> A                  
     freq (  7 -  7) =       1017.4  [cm-1]   --> A                  
     freq (  8 -  8) =       1020.6  [cm-1]   --> A                  
     freq (  9 -  9) =       1241.2  [cm-1]   --> A                  
     freq ( 10 - 10) =       1243.1  [cm-1]   --> A                  
     freq ( 11 - 11) =       1290.6  [cm-1]   --> A                  
     freq ( 12 - 12) =       1304.1  [cm-1]   --> A                  

     Calculation of q =    0.1666667   0.4811252   0.1253027

     Subspace diagonalization in iterative solution of the eigenvalue problem:
     a serial algorithm will be used

 
     G-vector sticks info
     --------------------
     sticks:   dense  smooth     PW     G-vecs:    dense   smooth      PW
     Sum         433     433    163                19375    19375    4499
 

     Title: 
     phonons for BN                                                             


     bravais-lattice index     =            4
     lattice parameter (alat)  =       4.7319  a.u.
     unit-cell volume          =     244.0890 (a.u.)^3
     number of atoms/cell      =            4
     number of atomic types    =            2
     number of electrons       =        16.00
     number of Kohn-Sham states=           12
     kinetic-energy cutoff     =      70.0000  Ry
     charge density cutoff     =     280.0000  Ry
     Exchange-correlation= PZ
                           (   1   1   0   0   0   0   0)

     celldm(1)=   4.731874  celldm(2)=   0.000000  celldm(3)=   2.660224
     celldm(4)=   0.000000  celldm(5)=   0.000000  celldm(6)=   0.000000

     crystal axes: (cart. coord. in units of alat)
               a(1) = (   1.000000   0.000000   0.000000 )  
               a(2) = (  -0.500000   0.866025   0.000000 )  
               a(3) = (   0.000000   0.000000   2.660224 )  

     reciprocal axes: (cart. coord. in units 2 pi/alat)
               b(1) = (  1.000000  0.577350  0.000000 )  
               b(2) = (  0.000000  1.154701  0.000000 )  
               b(3) = (  0.000000  0.000000  0.375908 )  


     PseudoPot. # 1 for B  read from file:
     ./b.cpi.UPF
     MD5 check sum: aadced629ac320abbac2d4088521b25e
     Pseudo is Norm-conserving + core correction, Zval =  3.0
     Generated by new atomic code, or converted to UPF format
     Using radial grid of  453 points,  3 beta functions with: 
                l(1) =   0
                l(2) =   1
                l(3) =   2

     PseudoPot. # 2 for N  read from file:
     ./n.cpi.UPF
     MD5 check sum: ff6dad263d6aed986b71703111ab3f52
     Pseudo is Norm-conserving, Zval =  5.0
     Generated by new atomic code, or converted to UPF format
     Using radial grid of  467 points,  3 beta functions with: 
                l(1) =   0
                l(2) =   1
                l(3) =   2

     atomic species   valence    mass     pseudopotential
        B              3.00    10.81100     B ( 1.00)
        N              5.00    14.00700     N ( 1.00)

     24 Sym. Ops., with inversion, found



   Cartesian axes

     site n.     atom                  positions (alat units)
         1           B   tau(   1) = (  -0.0000000   0.5773503   0.6650559  )
         2           B   tau(   2) = (   0.5000000   0.2886751   1.9951677  )
         3           N   tau(   3) = (  -0.0000000   0.5773503   1.9951677  )
         4           N   tau(   4) = (   0.5000000   0.2886751   0.6650559  )

     number of k points=  5184

     Number of k-points >= 100: set verbosity='high' to print them.

     Dense  grid:    19375 G-vectors     FFT dimensions: (  25,  25,  72)

     Estimated max dynamical RAM per process >      13.56 MB

     Estimated total dynamical RAM >     108.51 MB

     Check: negative core charge=   -0.000032

     The potential is recalculated from file :
     ./_ph0/BN.q_59/BN.save/charge-density

     Starting wfcs are   64 atomic wfcs

     Band Structure Calculation
     Davidson diagonalization with overlap

     ethr =  6.25E-11,  avg # of iterations = 23.0

     total cpu time spent up to now is      438.4 secs

     End of band structure calculation

     Number of k-points >= 100: set verbosity='high' to print the bands.

     highest occupied, lowest unoccupied level (ev):     4.4224    8.5565

     Writing output data file ./_ph0/BN.q_59/BN.save/

     phonons for BN                                                             

     bravais-lattice index     =            4
     lattice parameter (alat)  =       4.7319  a.u.
     unit-cell volume          =     244.0890 (a.u.)^3
     number of atoms/cell      =            4
     number of atomic types    =            2
     kinetic-energy cut-off    =      70.0000  Ry
     charge density cut-off    =     280.0000  Ry
     convergence threshold     =      1.0E-14
     beta                      =       0.7000
     number of iterations used =            4
     Exchange-correlation= PZ
                           (   1   1   0   0   0   0   0)


     celldm(1)=    4.73187  celldm(2)=    0.00000  celldm(3)=    2.66022
     celldm(4)=    0.00000  celldm(5)=    0.00000  celldm(6)=    0.00000

     crystal axes: (cart. coord. in units of alat)
               a(1) = (  1.0000  0.0000  0.0000 )  
               a(2) = ( -0.5000  0.8660  0.0000 )  
               a(3) = (  0.0000  0.0000  2.6602 )  

     reciprocal axes: (cart. coord. in units 2 pi/alat)
               b(1) = (  1.0000  0.5774  0.0000 )  
               b(2) = (  0.0000  1.1547  0.0000 )  
               b(3) = (  0.0000  0.0000  0.3759 )  


     Atoms inside the unit cell: 

     Cartesian axes

     site n.  atom      mass           positions (alat units)
        1     B   10.8110   tau(    1) = (   -0.00000    0.57735    0.66506  )
        2     B   10.8110   tau(    2) = (    0.50000    0.28868    1.99517  )
        3     N   14.0070   tau(    3) = (   -0.00000    0.57735    1.99517  )
        4     N   14.0070   tau(    4) = (    0.50000    0.28868    0.66506  )

     Computing dynamical matrix for 
                    q = (   0.1666667   0.4811252   0.1253027 )
 
     No symmetry!

     G cutoff =  158.8052  (  19375 G-vectors)     FFT grid: ( 25, 25, 72)
     number of k points=  5184

     PseudoPot. # 1 for B  read from file:
     ./b.cpi.UPF
     MD5 check sum: aadced629ac320abbac2d4088521b25e
     Pseudo is Norm-conserving + core correction, Zval =  3.0
     Generated by new atomic code, or converted to UPF format
     Using radial grid of  453 points,  3 beta functions with: 
                l(1) =   0
                l(2) =   1
                l(3) =   2

     PseudoPot. # 2 for N  read from file:
     ./n.cpi.UPF
     MD5 check sum: ff6dad263d6aed986b71703111ab3f52
     Pseudo is Norm-conserving, Zval =  5.0
     Generated by new atomic code, or converted to UPF format
     Using radial grid of  467 points,  3 beta functions with: 
                l(1) =   0
                l(2) =   1
                l(3) =   2

     Mode symmetry, C_1 (1)     point group:


     Atomic displacements:
     There are  12 irreducible representations

     Representation     1      1 modes -A  To be done

     Representation     2      1 modes -A  To be done

     Representation     3      1 modes -A  To be done

     Representation     4      1 modes -A  To be done

     Representation     5      1 modes -A  To be done

     Representation     6      1 modes -A  To be done

     Representation     7      1 modes -A  To be done

     Representation     8      1 modes -A  To be done

     Representation     9      1 modes -A  To be done

     Representation    10      1 modes -A  To be done

     Representation    11      1 modes -A  To be done

     Representation    12      1 modes -A  To be done



     Alpha used in Ewald sum =   2.8000
     PHONON       :   6m30.61s CPU   7m39.60s WALL



     Representation #  1 mode #   1

     Self-consistent Calculation

      iter #   1 total cpu time :   480.4 secs   av.it.:   7.0
      thresh= 1.000E-02 alpha_mix =  0.700 |ddv_scf|^2 =  3.614E-05

      iter #   2 total cpu time :   514.1 secs   av.it.:  10.1
      thresh= 6.012E-04 alpha_mix =  0.700 |ddv_scf|^2 =  2.528E-05

      iter #   3 total cpu time :   546.2 secs   av.it.:   9.3
      thresh= 5.028E-04 alpha_mix =  0.700 |ddv_scf|^2 =  2.184E-07

      iter #   4 total cpu time :   579.2 secs   av.it.:   9.9
      thresh= 4.673E-05 alpha_mix =  0.700 |ddv_scf|^2 =  1.402E-08

      iter #   5 total cpu time :   611.0 secs   av.it.:   9.8
      thresh= 1.184E-05 alpha_mix =  0.700 |ddv_scf|^2 =  4.412E-11

      iter #   6 total cpu time :   644.0 secs   av.it.:  10.4
      thresh= 6.642E-07 alpha_mix =  0.700 |ddv_scf|^2 =  1.114E-11

      iter #   7 total cpu time :   675.8 secs   av.it.:  10.1
      thresh= 3.337E-07 alpha_mix =  0.700 |ddv_scf|^2 =  1.892E-12

      iter #   8 total cpu time :   706.6 secs   av.it.:   9.9
      thresh= 1.376E-07 alpha_mix =  0.700 |ddv_scf|^2 =  2.154E-13

      iter #   9 total cpu time :   737.3 secs   av.it.:   9.9
      thresh= 4.641E-08 alpha_mix =  0.700 |ddv_scf|^2 =  1.178E-14

      iter #  10 total cpu time :   767.4 secs   av.it.:  10.0
      thresh= 1.085E-08 alpha_mix =  0.700 |ddv_scf|^2 =  7.535E-16

     End of self-consistent calculation

     Convergence has been achieved 


     Representation #  2 mode #   2

     Self-consistent Calculation

      iter #   1 total cpu time :   789.0 secs   av.it.:   6.9
      thresh= 1.000E-02 alpha_mix =  0.700 |ddv_scf|^2 =  3.216E-05

      iter #   2 total cpu time :   818.8 secs   av.it.:  10.1
      thresh= 5.671E-04 alpha_mix =  0.700 |ddv_scf|^2 =  2.082E-05

      iter #   3 total cpu time :   846.5 secs   av.it.:   9.3
      thresh= 4.563E-04 alpha_mix =  0.700 |ddv_scf|^2 =  2.630E-07

      iter #   4 total cpu time :   875.9 secs   av.it.:   9.9
      thresh= 5.128E-05 alpha_mix =  0.700 |ddv_scf|^2 =  2.512E-08

      iter #   5 total cpu time :   904.3 secs   av.it.:   9.8
      thresh= 1.585E-05 alpha_mix =  0.700 |ddv_scf|^2 =  1.821E-10

      iter #   6 total cpu time :   932.9 secs   av.it.:   9.9
      thresh= 1.349E-06 alpha_mix =  0.700 |ddv_scf|^2 =  1.196E-11

      iter #   7 total cpu time :   961.9 secs   av.it.:  10.1
      thresh= 3.458E-07 alpha_mix =  0.700 |ddv_scf|^2 =  2.336E-12

      iter #   8 total cpu time :   990.3 secs   av.it.:   9.8
      thresh= 1.528E-07 alpha_mix =  0.700 |ddv_scf|^2 =  2.974E-13

      iter #   9 total cpu time :  1019.0 secs   av.it.:   9.8
      thresh= 5.453E-08 alpha_mix =  0.700 |ddv_scf|^2 =  2.494E-14

      iter #  10 total cpu time :  1046.6 secs   av.it.:   9.7
      thresh= 1.579E-08 alpha_mix =  0.700 |ddv_scf|^2 =  6.044E-16

     End of self-consistent calculation

     Convergence has been achieved 


     Representation #  3 mode #   3

     Self-consistent Calculation

      iter #   1 total cpu time :  1066.0 secs   av.it.:   5.9
      thresh= 1.000E-02 alpha_mix =  0.700 |ddv_scf|^2 =  7.869E-07

      iter #   2 total cpu time :  1095.1 secs   av.it.:  10.5
      thresh= 8.871E-05 alpha_mix =  0.700 |ddv_scf|^2 =  3.762E-07

      iter #   3 total cpu time :  1122.7 secs   av.it.:  10.1
      thresh= 6.134E-05 alpha_mix =  0.700 |ddv_scf|^2 =  5.584E-08

      iter #   4 total cpu time :  1149.4 secs   av.it.:   9.5
      thresh= 2.363E-05 alpha_mix =  0.700 |ddv_scf|^2 =  1.695E-09

      iter #   5 total cpu time :  1177.3 secs   av.it.:  10.0
      thresh= 4.117E-06 alpha_mix =  0.700 |ddv_scf|^2 =  1.316E-10

      iter #   6 total cpu time :  1205.5 secs   av.it.:  10.0
      thresh= 1.147E-06 alpha_mix =  0.700 |ddv_scf|^2 =  6.886E-12

      iter #   7 total cpu time :  1233.6 secs   av.it.:  10.0
      thresh= 2.624E-07 alpha_mix =  0.700 |ddv_scf|^2 =  3.236E-12

      iter #   8 total cpu time :  1261.4 secs   av.it.:   9.5
      thresh= 1.799E-07 alpha_mix =  0.700 |ddv_scf|^2 =  2.533E-14

      iter #   9 total cpu time :  1290.5 secs   av.it.:  10.3
      thresh= 1.591E-08 alpha_mix =  0.700 |ddv_scf|^2 =  4.172E-15

     End of self-consistent calculation

     Convergence has been achieved 


     Representation #  4 mode #   4

     Self-consistent Calculation

      iter #   1 total cpu time :  1309.5 secs   av.it.:   5.4
      thresh= 1.000E-02 alpha_mix =  0.700 |ddv_scf|^2 =  3.440E-07

      iter #   2 total cpu time :  1338.1 secs   av.it.:  10.2
      thresh= 5.865E-05 alpha_mix =  0.700 |ddv_scf|^2 =  4.881E-08

      iter #   3 total cpu time :  1366.5 secs   av.it.:  10.2
      thresh= 2.209E-05 alpha_mix =  0.700 |ddv_scf|^2 =  2.037E-08

      iter #   4 total cpu time :  1393.2 secs   av.it.:   9.8
      thresh= 1.427E-05 alpha_mix =  0.700 |ddv_scf|^2 =  8.690E-10

      iter #   5 total cpu time :  1421.0 secs   av.it.:  10.1
      thresh= 2.948E-06 alpha_mix =  0.700 |ddv_scf|^2 =  9.112E-11

      iter #   6 total cpu time :  1448.6 secs   av.it.:  10.0
      thresh= 9.545E-07 alpha_mix =  0.700 |ddv_scf|^2 =  9.294E-13

      iter #   7 total cpu time :  1476.9 secs   av.it.:  10.2
      thresh= 9.641E-08 alpha_mix =  0.700 |ddv_scf|^2 =  2.341E-13

      iter #   8 total cpu time :  1503.8 secs   av.it.:   9.9
      thresh= 4.839E-08 alpha_mix =  0.700 |ddv_scf|^2 =  2.483E-14

      iter #   9 total cpu time :  1530.8 secs   av.it.:  10.0
      thresh= 1.576E-08 alpha_mix =  0.700 |ddv_scf|^2 =  6.540E-16

     End of self-consistent calculation

     Convergence has been achieved 


     Representation #  5 mode #   5

     Self-consistent Calculation

      iter #   1 total cpu time :  1551.9 secs   av.it.:   6.7
      thresh= 1.000E-02 alpha_mix =  0.700 |ddv_scf|^2 =  6.782E-06

      iter #   2 total cpu time :  1579.9 secs   av.it.:  10.5
      thresh= 2.604E-04 alpha_mix =  0.700 |ddv_scf|^2 =  1.251E-06

      iter #   3 total cpu time :  1606.9 secs   av.it.:  10.0
      thresh= 1.119E-04 alpha_mix =  0.700 |ddv_scf|^2 =  1.871E-07

      iter #   4 total cpu time :  1633.2 secs   av.it.:   9.7
      thresh= 4.325E-05 alpha_mix =  0.700 |ddv_scf|^2 =  4.536E-09

      iter #   5 total cpu time :  1659.6 secs   av.it.:   9.7
      thresh= 6.735E-06 alpha_mix =  0.700 |ddv_scf|^2 =  3.693E-11

      iter #   6 total cpu time :  1686.7 secs   av.it.:  10.1
      thresh= 6.077E-07 alpha_mix =  0.700 |ddv_scf|^2 =  1.193E-12

      iter #   7 total cpu time :  1714.7 secs   av.it.:  10.5
      thresh= 1.092E-07 alpha_mix =  0.700 |ddv_scf|^2 =  8.824E-13

      iter #   8 total cpu time :  1740.9 secs   av.it.:   9.8
      thresh= 9.393E-08 alpha_mix =  0.700 |ddv_scf|^2 =  3.943E-14

      iter #   9 total cpu time :  1767.8 secs   av.it.:  10.0
      thresh= 1.986E-08 alpha_mix =  0.700 |ddv_scf|^2 =  7.292E-15

     End of self-consistent calculation

     Convergence has been achieved 


     Representation #  6 mode #   6

     Self-consistent Calculation

      iter #   1 total cpu time :  1789.2 secs   av.it.:   6.9
      thresh= 1.000E-02 alpha_mix =  0.700 |ddv_scf|^2 =  6.992E-06

      iter #   2 total cpu time :  1817.7 secs   av.it.:  10.6
      thresh= 2.644E-04 alpha_mix =  0.700 |ddv_scf|^2 =  1.309E-06

      iter #   3 total cpu time :  1845.0 secs   av.it.:  10.1
      thresh= 1.144E-04 alpha_mix =  0.700 |ddv_scf|^2 =  1.294E-07

      iter #   4 total cpu time :  1871.5 secs   av.it.:   9.8
      thresh= 3.597E-05 alpha_mix =  0.700 |ddv_scf|^2 =  4.472E-09

      iter #   5 total cpu time :  1898.0 secs   av.it.:   9.8
      thresh= 6.687E-06 alpha_mix =  0.700 |ddv_scf|^2 =  5.337E-11

      iter #   6 total cpu time :  1925.2 secs   av.it.:  10.1
      thresh= 7.305E-07 alpha_mix =  0.700 |ddv_scf|^2 =  1.177E-12

      iter #   7 total cpu time :  1953.3 secs   av.it.:  10.5
      thresh= 1.085E-07 alpha_mix =  0.700 |ddv_scf|^2 =  4.984E-13

      iter #   8 total cpu time :  1981.5 secs   av.it.:  10.1
      thresh= 7.060E-08 alpha_mix =  0.700 |ddv_scf|^2 =  5.819E-14

      iter #   9 total cpu time :  2010.1 secs   av.it.:   9.9
      thresh= 2.412E-08 alpha_mix =  0.700 |ddv_scf|^2 =  9.225E-15

     End of self-consistent calculation

     Convergence has been achieved 


     Representation #  7 mode #   7

     Self-consistent Calculation

      iter #   1 total cpu time :  2029.2 secs   av.it.:   5.7
      thresh= 1.000E-02 alpha_mix =  0.700 |ddv_scf|^2 =  3.920E-07

      iter #   2 total cpu time :  2059.4 secs   av.it.:  10.4
      thresh= 6.261E-05 alpha_mix =  0.700 |ddv_scf|^2 =  7.172E-08

      iter #   3 total cpu time :  2089.5 secs   av.it.:  10.2
      thresh= 2.678E-05 alpha_mix =  0.700 |ddv_scf|^2 =  2.164E-08

      iter #   4 total cpu time :  2119.1 secs   av.it.:   9.8
      thresh= 1.471E-05 alpha_mix =  0.700 |ddv_scf|^2 =  1.301E-09

      iter #   5 total cpu time :  2149.7 secs   av.it.:  10.0
      thresh= 3.607E-06 alpha_mix =  0.700 |ddv_scf|^2 =  1.069E-10

      iter #   6 total cpu time :  2180.8 secs   av.it.:  10.0
      thresh= 1.034E-06 alpha_mix =  0.700 |ddv_scf|^2 =  9.576E-13

      iter #   7 total cpu time :  2212.6 secs   av.it.:  10.2
      thresh= 9.786E-08 alpha_mix =  0.700 |ddv_scf|^2 =  2.468E-13

      iter #   8 total cpu time :  2243.2 secs   av.it.:   9.9
      thresh= 4.968E-08 alpha_mix =  0.700 |ddv_scf|^2 =  3.141E-14

      iter #   9 total cpu time :  2274.1 secs   av.it.:   9.9
      thresh= 1.772E-08 alpha_mix =  0.700 |ddv_scf|^2 =  3.869E-16

     End of self-consistent calculation

     Convergence has been achieved 


     Representation #  8 mode #   8

     Self-consistent Calculation

      iter #   1 total cpu time :  2294.2 secs   av.it.:   6.0
      thresh= 1.000E-02 alpha_mix =  0.700 |ddv_scf|^2 =  5.666E-06

      iter #   2 total cpu time :  2326.5 secs   av.it.:  10.3
      thresh= 2.380E-04 alpha_mix =  0.700 |ddv_scf|^2 =  6.259E-06

      iter #   3 total cpu time :  2356.4 secs   av.it.:   9.6
      thresh= 2.502E-04 alpha_mix =  0.700 |ddv_scf|^2 =  6.311E-08

      iter #   4 total cpu time :  2387.1 secs   av.it.:   9.7
      thresh= 2.512E-05 alpha_mix =  0.700 |ddv_scf|^2 =  2.451E-09

      iter #   5 total cpu time :  2418.3 secs   av.it.:   9.9
      thresh= 4.950E-06 alpha_mix =  0.700 |ddv_scf|^2 =  1.263E-10

      iter #   6 total cpu time :  2451.6 secs   av.it.:  10.2
      thresh= 1.124E-06 alpha_mix =  0.700 |ddv_scf|^2 =  3.076E-11

      iter #   7 total cpu time :  2484.5 secs   av.it.:  10.0
      thresh= 5.547E-07 alpha_mix =  0.700 |ddv_scf|^2 =  8.026E-12

      iter #   8 total cpu time :  2515.8 secs   av.it.:   9.7
      thresh= 2.833E-07 alpha_mix =  0.700 |ddv_scf|^2 =  3.002E-14

      iter #   9 total cpu time :  2548.0 secs   av.it.:  10.1
      thresh= 1.733E-08 alpha_mix =  0.700 |ddv_scf|^2 =  5.115E-15

     End of self-consistent calculation

     Convergence has been achieved 


     Representation #  9 mode #   9

     Self-consistent Calculation

      iter #   1 total cpu time :  2569.5 secs   av.it.:   6.9
      thresh= 1.000E-02 alpha_mix =  0.700 |ddv_scf|^2 =  1.255E-05

      iter #   2 total cpu time :  2601.9 secs   av.it.:  10.4
      thresh= 3.542E-04 alpha_mix =  0.700 |ddv_scf|^2 =  6.595E-06

      iter #   3 total cpu time :  2631.6 secs   av.it.:   9.5
      thresh= 2.568E-04 alpha_mix =  0.700 |ddv_scf|^2 =  1.221E-07

      iter #   4 total cpu time :  2662.2 secs   av.it.:  10.0
      thresh= 3.495E-05 alpha_mix =  0.700 |ddv_scf|^2 =  1.614E-08

      iter #   5 total cpu time :  2692.5 secs   av.it.:   9.8
      thresh= 1.270E-05 alpha_mix =  0.700 |ddv_scf|^2 =  1.023E-10

      iter #   6 total cpu time :  2722.6 secs   av.it.:   9.9
      thresh= 1.011E-06 alpha_mix =  0.700 |ddv_scf|^2 =  3.598E-12

      iter #   7 total cpu time :  2753.3 secs   av.it.:  10.3
      thresh= 1.897E-07 alpha_mix =  0.700 |ddv_scf|^2 =  1.281E-12

      iter #   8 total cpu time :  2782.9 secs   av.it.:  10.0
      thresh= 1.132E-07 alpha_mix =  0.700 |ddv_scf|^2 =  1.955E-13

      iter #   9 total cpu time :  2811.9 secs   av.it.:   9.7
      thresh= 4.422E-08 alpha_mix =  0.700 |ddv_scf|^2 =  1.125E-14

      iter #  10 total cpu time :  2841.5 secs   av.it.:  10.0
      thresh= 1.061E-08 alpha_mix =  0.700 |ddv_scf|^2 =  3.860E-16

     End of self-consistent calculation

     Convergence has been achieved 


     Representation # 10 mode #  10

     Self-consistent Calculation

      iter #   1 total cpu time :  2862.3 secs   av.it.:   6.5
      thresh= 1.000E-02 alpha_mix =  0.700 |ddv_scf|^2 =  8.775E-06

      iter #   2 total cpu time :  2892.5 secs   av.it.:  10.2
      thresh= 2.962E-04 alpha_mix =  0.700 |ddv_scf|^2 =  2.186E-06

      iter #   3 total cpu time :  2921.6 secs   av.it.:   9.8
      thresh= 1.478E-04 alpha_mix =  0.700 |ddv_scf|^2 =  2.290E-07

      iter #   4 total cpu time :  2950.4 secs   av.it.:   9.7
      thresh= 4.785E-05 alpha_mix =  0.700 |ddv_scf|^2 =  7.589E-09

      iter #   5 total cpu time :  2978.8 secs   av.it.:   9.8
      thresh= 8.712E-06 alpha_mix =  0.700 |ddv_scf|^2 =  1.058E-10

      iter #   6 total cpu time :  3006.8 secs   av.it.:   9.9
      thresh= 1.028E-06 alpha_mix =  0.700 |ddv_scf|^2 =  2.151E-12

      iter #   7 total cpu time :  3036.3 secs   av.it.:  10.4
      thresh= 1.466E-07 alpha_mix =  0.700 |ddv_scf|^2 =  1.868E-12

      iter #   8 total cpu time :  3064.2 secs   av.it.:   9.7
      thresh= 1.367E-07 alpha_mix =  0.700 |ddv_scf|^2 =  5.361E-14

      iter #   9 total cpu time :  3092.7 secs   av.it.:  10.1
      thresh= 2.315E-08 alpha_mix =  0.700 |ddv_scf|^2 =  1.306E-14

      iter #  10 total cpu time :  3119.9 secs   av.it.:   9.8
      thresh= 1.143E-08 alpha_mix =  0.700 |ddv_scf|^2 =  2.003E-16

     End of self-consistent calculation

     Convergence has been achieved 


     Representation # 11 mode #  11

     Self-consistent Calculation

      iter #   1 total cpu time :  3139.2 secs   av.it.:   5.9
      thresh= 1.000E-02 alpha_mix =  0.700 |ddv_scf|^2 =  1.595E-06

      iter #   2 total cpu time :  3167.9 secs   av.it.:  10.4
      thresh= 1.263E-04 alpha_mix =  0.700 |ddv_scf|^2 =  1.836E-06

      iter #   3 total cpu time :  3194.6 secs   av.it.:   9.6
      thresh= 1.355E-04 alpha_mix =  0.700 |ddv_scf|^2 =  2.234E-08

      iter #   4 total cpu time :  3221.2 secs   av.it.:   9.6
      thresh= 1.495E-05 alpha_mix =  0.700 |ddv_scf|^2 =  1.283E-09

      iter #   5 total cpu time :  3248.4 secs   av.it.:  10.0
      thresh= 3.581E-06 alpha_mix =  0.700 |ddv_scf|^2 =  1.448E-10

      iter #   6 total cpu time :  3276.0 secs   av.it.:  10.0
      thresh= 1.203E-06 alpha_mix =  0.700 |ddv_scf|^2 =  1.472E-11

      iter #   7 total cpu time :  3303.2 secs   av.it.:  10.0
      thresh= 3.836E-07 alpha_mix =  0.700 |ddv_scf|^2 =  5.041E-12

      iter #   8 total cpu time :  3329.8 secs   av.it.:   9.8
      thresh= 2.245E-07 alpha_mix =  0.700 |ddv_scf|^2 =  2.144E-13

      iter #   9 total cpu time :  3356.7 secs   av.it.:   9.9
      thresh= 4.630E-08 alpha_mix =  0.700 |ddv_scf|^2 =  1.877E-15

     End of self-consistent calculation

     Convergence has been achieved 


     Representation # 12 mode #  12

     Self-consistent Calculation

      iter #   1 total cpu time :  3376.3 secs   av.it.:   6.0
      thresh= 1.000E-02 alpha_mix =  0.700 |ddv_scf|^2 =  6.430E-06

      iter #   2 total cpu time :  3404.3 secs   av.it.:  10.3
      thresh= 2.536E-04 alpha_mix =  0.700 |ddv_scf|^2 =  7.710E-06

      iter #   3 total cpu time :  3430.6 secs   av.it.:   9.5
      thresh= 2.777E-04 alpha_mix =  0.700 |ddv_scf|^2 =  4.541E-08

      iter #   4 total cpu time :  3457.0 secs   av.it.:   9.7
      thresh= 2.131E-05 alpha_mix =  0.700 |ddv_scf|^2 =  2.004E-09

      iter #   5 total cpu time :  3483.9 secs   av.it.:  10.0
      thresh= 4.476E-06 alpha_mix =  0.700 |ddv_scf|^2 =  1.431E-10

      iter #   6 total cpu time :  3511.4 secs   av.it.:  10.2
      thresh= 1.196E-06 alpha_mix =  0.700 |ddv_scf|^2 =  3.476E-11

      iter #   7 total cpu time :  3538.2 secs   av.it.:   9.9
      thresh= 5.895E-07 alpha_mix =  0.700 |ddv_scf|^2 =  5.300E-12

      iter #   8 total cpu time :  3564.7 secs   av.it.:   9.8
      thresh= 2.302E-07 alpha_mix =  0.700 |ddv_scf|^2 =  2.786E-14

      iter #   9 total cpu time :  3591.8 secs   av.it.:  10.1
      thresh= 1.669E-08 alpha_mix =  0.700 |ddv_scf|^2 =  3.333E-15

     End of self-consistent calculation

     Convergence has been achieved 
 
     Number of q in the star =   24
     List of q in the star:
          1   0.166666667   0.481125224   0.125302748
          2   0.166666667   0.481125224  -0.125302748
          3   0.333333333   0.384900179  -0.125302748
          4   0.333333333   0.384900179   0.125302748
          5  -0.166666667   0.481125224   0.125302748
          6   0.166666667  -0.481125224  -0.125302748
          7  -0.166666667   0.481125224  -0.125302748
          8  -0.166666667  -0.481125224  -0.125302748
          9   0.500000000   0.096225045   0.125302748
         10   0.500000000  -0.096225045   0.125302748
         11  -0.333333333  -0.384900179   0.125302748
         12  -0.500000000  -0.096225045   0.125302748
         13  -0.166666667  -0.481125224   0.125302748
         14   0.333333333  -0.384900179   0.125302748
         15   0.166666667  -0.481125224   0.125302748
         16  -0.500000000   0.096225045   0.125302748
         17  -0.333333333   0.384900179   0.125302748
         18   0.333333333  -0.384900179  -0.125302748
         19   0.500000000   0.096225045  -0.125302748
         20  -0.333333333   0.384900179  -0.125302748
         21  -0.333333333  -0.384900179  -0.125302748
         22   0.500000000  -0.096225045  -0.125302748
         23  -0.500000000  -0.096225045  -0.125302748
         24  -0.500000000   0.096225045  -0.125302748

     Diagonalizing the dynamical matrix

     q = (    0.166666667   0.481125224   0.125302748 ) 

 **************************************************************************
     freq (    1) =       9.160664 [THz] =     305.566862 [cm-1]
     freq (    2) =       9.249502 [THz] =     308.530172 [cm-1]
     freq (    3) =      18.954119 [THz] =     632.241352 [cm-1]
     freq (    4) =      19.303429 [THz] =     643.893082 [cm-1]
     freq (    5) =      20.397016 [THz] =     680.371223 [cm-1]
     freq (    6) =      20.439033 [THz] =     681.772757 [cm-1]
     freq (    7) =      30.523025 [THz] =    1018.138538 [cm-1]
     freq (    8) =      30.577941 [THz] =    1019.970314 [cm-1]
     freq (    9) =      37.222046 [THz] =    1241.593816 [cm-1]
     freq (   10) =      37.255957 [THz] =    1242.724951 [cm-1]
     freq (   11) =      38.777036 [THz] =    1293.462688 [cm-1]
     freq (   12) =      39.011651 [THz] =    1301.288596 [cm-1]
 **************************************************************************

     Mode symmetry, C_1 (1)     point group:

     freq (  1 -  1) =        305.6  [cm-1]   --> A                  
     freq (  2 -  2) =        308.5  [cm-1]   --> A                  
     freq (  3 -  3) =        632.2  [cm-1]   --> A                  
     freq (  4 -  4) =        643.9  [cm-1]   --> A                  
     freq (  5 -  5) =        680.4  [cm-1]   --> A                  
     freq (  6 -  6) =        681.8  [cm-1]   --> A                  
     freq (  7 -  7) =       1018.1  [cm-1]   --> A                  
     freq (  8 -  8) =       1020.0  [cm-1]   --> A                  
     freq (  9 -  9) =       1241.6  [cm-1]   --> A                  
     freq ( 10 - 10) =       1242.7  [cm-1]   --> A                  
     freq ( 11 - 11) =       1293.5  [cm-1]   --> A                  
     freq ( 12 - 12) =       1301.3  [cm-1]   --> A                  

     Calculation of q =    0.1666667   0.4811252  -0.1879541
 
     G-vector sticks info
     --------------------
     sticks:   dense  smooth     PW     G-vecs:    dense   smooth      PW
     Sum         433     433    163                19375    19375    4463
 

     Title: 
     phonons for BN                                                             


     bravais-lattice index     =            4
     lattice parameter (alat)  =       4.7319  a.u.
     unit-cell volume          =     244.0890 (a.u.)^3
     number of atoms/cell      =            4
     number of atomic types    =            2
     number of electrons       =        16.00
     number of Kohn-Sham states=           12
     kinetic-energy cutoff     =      70.0000  Ry
     charge density cutoff     =     280.0000  Ry
     Exchange-correlation= PZ
                           (   1   1   0   0   0   0   0)

     celldm(1)=   4.731874  celldm(2)=   0.000000  celldm(3)=   2.660224
     celldm(4)=   0.000000  celldm(5)=   0.000000  celldm(6)=   0.000000

     crystal axes: (cart. coord. in units of alat)
               a(1) = (   1.000000   0.000000   0.000000 )  
               a(2) = (  -0.500000   0.866025   0.000000 )  
               a(3) = (   0.000000   0.000000   2.660224 )  

     reciprocal axes: (cart. coord. in units 2 pi/alat)
               b(1) = (  1.000000  0.577350  0.000000 )  
               b(2) = (  0.000000  1.154701  0.000000 )  
               b(3) = (  0.000000  0.000000  0.375908 )  


     PseudoPot. # 1 for B  read from file:
     ./b.cpi.UPF
     MD5 check sum: aadced629ac320abbac2d4088521b25e
     Pseudo is Norm-conserving + core correction, Zval =  3.0
     Generated by new atomic code, or converted to UPF format
     Using radial grid of  453 points,  3 beta functions with: 
                l(1) =   0
                l(2) =   1
                l(3) =   2

     PseudoPot. # 2 for N  read from file:
     ./n.cpi.UPF
     MD5 check sum: ff6dad263d6aed986b71703111ab3f52
     Pseudo is Norm-conserving, Zval =  5.0
     Generated by new atomic code, or converted to UPF format
     Using radial grid of  467 points,  3 beta functions with: 
                l(1) =   0
                l(2) =   1
                l(3) =   2

     atomic species   valence    mass     pseudopotential
        B              3.00    10.81100     B ( 1.00)
        N              5.00    14.00700     N ( 1.00)

     24 Sym. Ops., with inversion, found



   Cartesian axes

     site n.     atom                  positions (alat units)
         1           B   tau(   1) = (  -0.0000000   0.5773503   0.6650559  )
         2           B   tau(   2) = (   0.5000000   0.2886751   1.9951677  )
         3           N   tau(   3) = (  -0.0000000   0.5773503   1.9951677  )
         4           N   tau(   4) = (   0.5000000   0.2886751   0.6650559  )

     number of k points=  2592

     Number of k-points >= 100: set verbosity='high' to print them.

     Dense  grid:    19375 G-vectors     FFT dimensions: (  25,  25,  72)

     Estimated max dynamical RAM per process >      13.56 MB

     Estimated total dynamical RAM >     108.51 MB

     Check: negative core charge=   -0.000032

     The potential is recalculated from file :
     ./_ph0/BN.q_60/BN.save/charge-density

     Starting wfcs are   64 atomic wfcs

     Band Structure Calculation
     Davidson diagonalization with overlap

     ethr =  6.25E-11,  avg # of iterations = 23.0

     total cpu time spent up to now is      512.5 secs

     End of band structure calculation

     Number of k-points >= 100: set verbosity='high' to print the bands.

     highest occupied, lowest unoccupied level (ev):     4.4224    8.5565

     Writing output data file ./_ph0/BN.q_60/BN.save/

     phonons for BN                                                             

     bravais-lattice index     =            4
     lattice parameter (alat)  =       4.7319  a.u.
     unit-cell volume          =     244.0890 (a.u.)^3
     number of atoms/cell      =            4
     number of atomic types    =            2
     kinetic-energy cut-off    =      70.0000  Ry
     charge density cut-off    =     280.0000  Ry
     convergence threshold     =      1.0E-14
     beta                      =       0.7000
     number of iterations used =            4
     Exchange-correlation= PZ
                           (   1   1   0   0   0   0   0)


     celldm(1)=    4.73187  celldm(2)=    0.00000  celldm(3)=    2.66022
     celldm(4)=    0.00000  celldm(5)=    0.00000  celldm(6)=    0.00000

     crystal axes: (cart. coord. in units of alat)
               a(1) = (  1.0000  0.0000  0.0000 )  
               a(2) = ( -0.5000  0.8660  0.0000 )  
               a(3) = (  0.0000  0.0000  2.6602 )  

     reciprocal axes: (cart. coord. in units 2 pi/alat)
               b(1) = (  1.0000  0.5774  0.0000 )  
               b(2) = (  0.0000  1.1547  0.0000 )  
               b(3) = (  0.0000  0.0000  0.3759 )  


     Atoms inside the unit cell: 

     Cartesian axes

     site n.  atom      mass           positions (alat units)
        1     B   10.8110   tau(    1) = (   -0.00000    0.57735    0.66506  )
        2     B   10.8110   tau(    2) = (    0.50000    0.28868    1.99517  )
        3     N   14.0070   tau(    3) = (   -0.00000    0.57735    1.99517  )
        4     N   14.0070   tau(    4) = (    0.50000    0.28868    0.66506  )

     Computing dynamical matrix for 
                    q = (   0.1666667   0.4811252  -0.1879541 )
 
      2 Sym.Ops. (no q -> -q+G )


     G cutoff =  158.8052  (  19375 G-vectors)     FFT grid: ( 25, 25, 72)
     number of k points=  2592

     PseudoPot. # 1 for B  read from file:
     ./b.cpi.UPF
     MD5 check sum: aadced629ac320abbac2d4088521b25e
     Pseudo is Norm-conserving + core correction, Zval =  3.0
     Generated by new atomic code, or converted to UPF format
     Using radial grid of  453 points,  3 beta functions with: 
                l(1) =   0
                l(2) =   1
                l(3) =   2

     PseudoPot. # 2 for N  read from file:
     ./n.cpi.UPF
     MD5 check sum: ff6dad263d6aed986b71703111ab3f52
     Pseudo is Norm-conserving, Zval =  5.0
     Generated by new atomic code, or converted to UPF format
     Using radial grid of  467 points,  3 beta functions with: 
                l(1) =   0
                l(2) =   1
                l(3) =   2


     Atomic displacements:
     There are  12 irreducible representations

     Representation     1      1 modes -  To be done

     Representation     2      1 modes -  To be done

     Representation     3      1 modes -  To be done

     Representation     4      1 modes -  To be done

     Representation     5      1 modes -  To be done

     Representation     6      1 modes -  To be done

     Representation     7      1 modes -  To be done

     Representation     8      1 modes -  To be done

     Representation     9      1 modes -  To be done

     Representation    10      1 modes -  To be done

     Representation    11      1 modes -  To be done

     Representation    12      1 modes -  To be done



     Alpha used in Ewald sum =   2.8000
     PHONON       :  54m 3.43s CPU      1h 1m WALL



     Representation #  1 mode #   1

     Self-consistent Calculation

      iter #   1 total cpu time :  3678.2 secs   av.it.:   6.9
      thresh= 1.000E-02 alpha_mix =  0.700 |ddv_scf|^2 =  3.676E-05

      iter #   2 total cpu time :  3691.6 secs   av.it.:  10.0
      thresh= 6.063E-04 alpha_mix =  0.700 |ddv_scf|^2 =  2.555E-05

      iter #   3 total cpu time :  3704.3 secs   av.it.:   9.3
      thresh= 5.055E-04 alpha_mix =  0.700 |ddv_scf|^2 =  2.017E-07

      iter #   4 total cpu time :  3717.5 secs   av.it.:   9.9
      thresh= 4.491E-05 alpha_mix =  0.700 |ddv_scf|^2 =  1.350E-08

      iter #   5 total cpu time :  3730.5 secs   av.it.:   9.8
      thresh= 1.162E-05 alpha_mix =  0.700 |ddv_scf|^2 =  1.088E-11

      iter #   6 total cpu time :  3744.1 secs   av.it.:  10.3
      thresh= 3.298E-07 alpha_mix =  0.700 |ddv_scf|^2 =  8.879E-13

      iter #   7 total cpu time :  3757.5 secs   av.it.:  10.1
      thresh= 9.423E-08 alpha_mix =  0.700 |ddv_scf|^2 =  1.314E-14

      iter #   8 total cpu time :  3771.1 secs   av.it.:  10.3
      thresh= 1.146E-08 alpha_mix =  0.700 |ddv_scf|^2 =  6.807E-15

     End of self-consistent calculation

     Convergence has been achieved 


     Representation #  2 mode #   2

     Self-consistent Calculation

      iter #   1 total cpu time :  3782.0 secs   av.it.:   6.9
      thresh= 1.000E-02 alpha_mix =  0.700 |ddv_scf|^2 =  3.225E-05

      iter #   2 total cpu time :  3795.4 secs   av.it.:  10.1
      thresh= 5.679E-04 alpha_mix =  0.700 |ddv_scf|^2 =  2.060E-05

      iter #   3 total cpu time :  3808.1 secs   av.it.:   9.4
      thresh= 4.539E-04 alpha_mix =  0.700 |ddv_scf|^2 =  2.457E-07

      iter #   4 total cpu time :  3821.3 secs   av.it.:  10.0
      thresh= 4.957E-05 alpha_mix =  0.700 |ddv_scf|^2 =  2.520E-08

      iter #   5 total cpu time :  3834.2 secs   av.it.:   9.8
      thresh= 1.588E-05 alpha_mix =  0.700 |ddv_scf|^2 =  1.740E-10

      iter #   6 total cpu time :  3847.2 secs   av.it.:   9.8
      thresh= 1.319E-06 alpha_mix =  0.700 |ddv_scf|^2 =  1.440E-12

      iter #   7 total cpu time :  3860.2 secs   av.it.:   9.8
      thresh= 1.200E-07 alpha_mix =  0.700 |ddv_scf|^2 =  2.292E-14

      iter #   8 total cpu time :  3873.7 secs   av.it.:  10.2
      thresh= 1.514E-08 alpha_mix =  0.700 |ddv_scf|^2 =  5.147E-15

     End of self-consistent calculation

     Convergence has been achieved 


     Representation #  3 mode #   3

     Self-consistent Calculation

      iter #   1 total cpu time :  3883.2 secs   av.it.:   5.8
      thresh= 1.000E-02 alpha_mix =  0.700 |ddv_scf|^2 =  8.332E-07

      iter #   2 total cpu time :  3897.0 secs   av.it.:  10.4
      thresh= 9.128E-05 alpha_mix =  0.700 |ddv_scf|^2 =  3.945E-07

      iter #   3 total cpu time :  3910.3 secs   av.it.:  10.1
      thresh= 6.281E-05 alpha_mix =  0.700 |ddv_scf|^2 =  5.771E-08

      iter #   4 total cpu time :  3923.0 secs   av.it.:   9.5
      thresh= 2.402E-05 alpha_mix =  0.700 |ddv_scf|^2 =  1.711E-09

      iter #   5 total cpu time :  3936.1 secs   av.it.:  10.0
      thresh= 4.136E-06 alpha_mix =  0.700 |ddv_scf|^2 =  1.301E-10

      iter #   6 total cpu time :  3949.2 secs   av.it.:   9.9
      thresh= 1.141E-06 alpha_mix =  0.700 |ddv_scf|^2 =  3.846E-12

      iter #   7 total cpu time :  3962.0 secs   av.it.:   9.5
      thresh= 1.961E-07 alpha_mix =  0.700 |ddv_scf|^2 =  2.041E-14

      iter #   8 total cpu time :  3974.9 secs   av.it.:   9.9
      thresh= 1.429E-08 alpha_mix =  0.700 |ddv_scf|^2 =  3.677E-16

     End of self-consistent calculation

     Convergence has been achieved 


     Representation #  4 mode #   4

     Self-consistent Calculation

      iter #   1 total cpu time :  3984.2 secs   av.it.:   5.3
      thresh= 1.000E-02 alpha_mix =  0.700 |ddv_scf|^2 =  3.466E-07

      iter #   2 total cpu time :  3997.6 secs   av.it.:  10.2
      thresh= 5.887E-05 alpha_mix =  0.700 |ddv_scf|^2 =  5.338E-08

      iter #   3 total cpu time :  4011.1 secs   av.it.:  10.1
      thresh= 2.310E-05 alpha_mix =  0.700 |ddv_scf|^2 =  1.976E-08

      iter #   4 total cpu time :  4024.1 secs   av.it.:   9.8
      thresh= 1.406E-05 alpha_mix =  0.700 |ddv_scf|^2 =  7.689E-10

      iter #   5 total cpu time :  4037.5 secs   av.it.:  10.1
      thresh= 2.773E-06 alpha_mix =  0.700 |ddv_scf|^2 =  8.704E-11

      iter #   6 total cpu time :  4050.8 secs   av.it.:  10.1
      thresh= 9.329E-07 alpha_mix =  0.700 |ddv_scf|^2 =  4.771E-13

      iter #   7 total cpu time :  4064.1 secs   av.it.:  10.2
      thresh= 6.907E-08 alpha_mix =  0.700 |ddv_scf|^2 =  9.906E-15

     End of self-consistent calculation

     Convergence has been achieved 


     Representation #  5 mode #   5

     Self-consistent Calculation

      iter #   1 total cpu time :  4074.4 secs   av.it.:   6.4
      thresh= 1.000E-02 alpha_mix =  0.700 |ddv_scf|^2 =  6.071E-06

      iter #   2 total cpu time :  4088.1 secs   av.it.:  10.4
      thresh= 2.464E-04 alpha_mix =  0.700 |ddv_scf|^2 =  6.330E-07

      iter #   3 total cpu time :  4101.5 secs   av.it.:  10.1
      thresh= 7.956E-05 alpha_mix =  0.700 |ddv_scf|^2 =  1.156E-07

      iter #   4 total cpu time :  4114.3 secs   av.it.:   9.6
      thresh= 3.400E-05 alpha_mix =  0.700 |ddv_scf|^2 =  2.304E-09

      iter #   5 total cpu time :  4127.3 secs   av.it.:   9.8
      thresh= 4.800E-06 alpha_mix =  0.700 |ddv_scf|^2 =  4.058E-11

      iter #   6 total cpu time :  4140.5 secs   av.it.:  10.0
      thresh= 6.370E-07 alpha_mix =  0.700 |ddv_scf|^2 =  6.585E-13

      iter #   7 total cpu time :  4153.7 secs   av.it.:  10.0
      thresh= 8.115E-08 alpha_mix =  0.700 |ddv_scf|^2 =  6.658E-15

     End of self-consistent calculation

     Convergence has been achieved 


     Representation #  6 mode #   6

     Self-consistent Calculation

      iter #   1 total cpu time :  4164.1 secs   av.it.:   6.4
      thresh= 1.000E-02 alpha_mix =  0.700 |ddv_scf|^2 =  6.071E-06

      iter #   2 total cpu time :  4177.8 secs   av.it.:  10.4
      thresh= 2.464E-04 alpha_mix =  0.700 |ddv_scf|^2 =  6.330E-07

      iter #   3 total cpu time :  4191.3 secs   av.it.:  10.1
      thresh= 7.956E-05 alpha_mix =  0.700 |ddv_scf|^2 =  1.156E-07

      iter #   4 total cpu time :  4204.3 secs   av.it.:   9.6
      thresh= 3.400E-05 alpha_mix =  0.700 |ddv_scf|^2 =  2.304E-09

      iter #   5 total cpu time :  4217.3 secs   av.it.:   9.8
      thresh= 4.800E-06 alpha_mix =  0.700 |ddv_scf|^2 =  4.058E-11

      iter #   6 total cpu time :  4230.5 secs   av.it.:  10.0
      thresh= 6.370E-07 alpha_mix =  0.700 |ddv_scf|^2 =  6.585E-13

      iter #   7 total cpu time :  4243.7 secs   av.it.:  10.0
      thresh= 8.115E-08 alpha_mix =  0.700 |ddv_scf|^2 =  6.658E-15

     End of self-consistent calculation

     Convergence has been achieved 


     Representation #  7 mode #   7

     Self-consistent Calculation

      iter #   1 total cpu time :  4252.9 secs   av.it.:   5.3
      thresh= 1.000E-02 alpha_mix =  0.700 |ddv_scf|^2 =  3.466E-07

      iter #   2 total cpu time :  4266.4 secs   av.it.:  10.2
      thresh= 5.887E-05 alpha_mix =  0.700 |ddv_scf|^2 =  5.338E-08

      iter #   3 total cpu time :  4279.8 secs   av.it.:  10.1
      thresh= 2.310E-05 alpha_mix =  0.700 |ddv_scf|^2 =  1.976E-08

      iter #   4 total cpu time :  4292.7 secs   av.it.:   9.8
      thresh= 1.406E-05 alpha_mix =  0.700 |ddv_scf|^2 =  7.689E-10

      iter #   5 total cpu time :  4306.1 secs   av.it.:  10.1
      thresh= 2.773E-06 alpha_mix =  0.700 |ddv_scf|^2 =  8.704E-11

      iter #   6 total cpu time :  4319.4 secs   av.it.:  10.1
      thresh= 9.329E-07 alpha_mix =  0.700 |ddv_scf|^2 =  4.771E-13

      iter #   7 total cpu time :  4332.7 secs   av.it.:  10.2
      thresh= 6.907E-08 alpha_mix =  0.700 |ddv_scf|^2 =  9.906E-15

     End of self-consistent calculation

     Convergence has been achieved 


     Representation #  8 mode #   8

     Self-consistent Calculation

      iter #   1 total cpu time :  4342.5 secs   av.it.:   6.0
      thresh= 1.000E-02 alpha_mix =  0.700 |ddv_scf|^2 =  5.601E-06

      iter #   2 total cpu time :  4356.2 secs   av.it.:  10.3
      thresh= 2.367E-04 alpha_mix =  0.700 |ddv_scf|^2 =  6.128E-06

      iter #   3 total cpu time :  4369.0 secs   av.it.:   9.6
      thresh= 2.476E-04 alpha_mix =  0.700 |ddv_scf|^2 =  6.375E-08

      iter #   4 total cpu time :  4381.8 secs   av.it.:   9.7
      thresh= 2.525E-05 alpha_mix =  0.700 |ddv_scf|^2 =  2.415E-09

      iter #   5 total cpu time :  4394.9 secs   av.it.:   9.9
      thresh= 4.914E-06 alpha_mix =  0.700 |ddv_scf|^2 =  1.016E-10

      iter #   6 total cpu time :  4408.0 secs   av.it.:  10.0
      thresh= 1.008E-06 alpha_mix =  0.700 |ddv_scf|^2 =  1.980E-12

      iter #   7 total cpu time :  4420.7 secs   av.it.:   9.4
      thresh= 1.407E-07 alpha_mix =  0.700 |ddv_scf|^2 =  4.725E-14

      iter #   8 total cpu time :  4433.5 secs   av.it.:   9.7
      thresh= 2.174E-08 alpha_mix =  0.700 |ddv_scf|^2 =  1.340E-15

     End of self-consistent calculation

     Convergence has been achieved 


     Representation #  9 mode #   9

     Self-consistent Calculation

      iter #   1 total cpu time :  4443.9 secs   av.it.:   6.6
      thresh= 1.000E-02 alpha_mix =  0.700 |ddv_scf|^2 =  1.327E-05

      iter #   2 total cpu time :  4457.4 secs   av.it.:  10.2
      thresh= 3.643E-04 alpha_mix =  0.700 |ddv_scf|^2 =  7.091E-06

      iter #   3 total cpu time :  4470.1 secs   av.it.:   9.4
      thresh= 2.663E-04 alpha_mix =  0.700 |ddv_scf|^2 =  1.061E-07

      iter #   4 total cpu time :  4483.2 secs   av.it.:  10.0
      thresh= 3.257E-05 alpha_mix =  0.700 |ddv_scf|^2 =  1.514E-08

      iter #   5 total cpu time :  4496.2 secs   av.it.:   9.8
      thresh= 1.230E-05 alpha_mix =  0.700 |ddv_scf|^2 =  1.367E-10

      iter #   6 total cpu time :  4509.1 secs   av.it.:   9.8
      thresh= 1.169E-06 alpha_mix =  0.700 |ddv_scf|^2 =  1.209E-12

      iter #   7 total cpu time :  4522.0 secs   av.it.:   9.9
      thresh= 1.100E-07 alpha_mix =  0.700 |ddv_scf|^2 =  2.105E-14

      iter #   8 total cpu time :  4535.1 secs   av.it.:  10.0
      thresh= 1.451E-08 alpha_mix =  0.700 |ddv_scf|^2 =  4.062E-16

     End of self-consistent calculation

     Convergence has been achieved 


     Representation # 10 mode #  10

     Self-consistent Calculation

      iter #   1 total cpu time :  4545.4 secs   av.it.:   6.4
      thresh= 1.000E-02 alpha_mix =  0.700 |ddv_scf|^2 =  8.759E-06

      iter #   2 total cpu time :  4558.8 secs   av.it.:  10.2
      thresh= 2.960E-04 alpha_mix =  0.700 |ddv_scf|^2 =  2.132E-06

      iter #   3 total cpu time :  4571.8 secs   av.it.:   9.8
      thresh= 1.460E-04 alpha_mix =  0.700 |ddv_scf|^2 =  2.205E-07

      iter #   4 total cpu time :  4584.8 secs   av.it.:   9.7
      thresh= 4.696E-05 alpha_mix =  0.700 |ddv_scf|^2 =  7.505E-09

      iter #   5 total cpu time :  4597.7 secs   av.it.:   9.8
      thresh= 8.663E-06 alpha_mix =  0.700 |ddv_scf|^2 =  1.077E-10

      iter #   6 total cpu time :  4610.7 secs   av.it.:   9.9
      thresh= 1.038E-06 alpha_mix =  0.700 |ddv_scf|^2 =  6.396E-13

      iter #   7 total cpu time :  4623.7 secs   av.it.:   9.7
      thresh= 7.997E-08 alpha_mix =  0.700 |ddv_scf|^2 =  2.939E-14

      iter #   8 total cpu time :  4636.8 secs   av.it.:  10.0
      thresh= 1.714E-08 alpha_mix =  0.700 |ddv_scf|^2 =  2.030E-16

     End of self-consistent calculation

     Convergence has been achieved 


     Representation # 11 mode #  11

     Self-consistent Calculation

      iter #   1 total cpu time :  4646.4 secs   av.it.:   5.8
      thresh= 1.000E-02 alpha_mix =  0.700 |ddv_scf|^2 =  1.622E-06

      iter #   2 total cpu time :  4660.1 secs   av.it.:  10.4
      thresh= 1.274E-04 alpha_mix =  0.700 |ddv_scf|^2 =  1.870E-06

      iter #   3 total cpu time :  4672.9 secs   av.it.:   9.6
      thresh= 1.367E-04 alpha_mix =  0.700 |ddv_scf|^2 =  2.215E-08

      iter #   4 total cpu time :  4685.6 secs   av.it.:   9.6
      thresh= 1.488E-05 alpha_mix =  0.700 |ddv_scf|^2 =  1.229E-09

      iter #   5 total cpu time :  4699.2 secs   av.it.:  10.0
      thresh= 3.506E-06 alpha_mix =  0.700 |ddv_scf|^2 =  1.179E-10

      iter #   6 total cpu time :  4712.3 secs   av.it.:  10.0
      thresh= 1.086E-06 alpha_mix =  0.700 |ddv_scf|^2 =  4.713E-12

      iter #   7 total cpu time :  4725.0 secs   av.it.:   9.5
      thresh= 2.171E-07 alpha_mix =  0.700 |ddv_scf|^2 =  2.974E-14

      iter #   8 total cpu time :  4737.8 secs   av.it.:   9.7
      thresh= 1.724E-08 alpha_mix =  0.700 |ddv_scf|^2 =  7.242E-16

     End of self-consistent calculation

     Convergence has been achieved 


     Representation # 12 mode #  12

     Self-consistent Calculation

      iter #   1 total cpu time :  4747.7 secs   av.it.:   6.0
      thresh= 1.000E-02 alpha_mix =  0.700 |ddv_scf|^2 =  6.395E-06

      iter #   2 total cpu time :  4761.4 secs   av.it.:  10.3
      thresh= 2.529E-04 alpha_mix =  0.700 |ddv_scf|^2 =  7.618E-06

      iter #   3 total cpu time :  4774.1 secs   av.it.:   9.5
      thresh= 2.760E-04 alpha_mix =  0.700 |ddv_scf|^2 =  4.558E-08

      iter #   4 total cpu time :  4787.0 secs   av.it.:   9.7
      thresh= 2.135E-05 alpha_mix =  0.700 |ddv_scf|^2 =  1.919E-09

      iter #   5 total cpu time :  4800.1 secs   av.it.:   9.9
      thresh= 4.381E-06 alpha_mix =  0.700 |ddv_scf|^2 =  1.023E-10

      iter #   6 total cpu time :  4813.2 secs   av.it.:  10.0
      thresh= 1.011E-06 alpha_mix =  0.700 |ddv_scf|^2 =  2.993E-12

      iter #   7 total cpu time :  4825.9 secs   av.it.:   9.4
      thresh= 1.730E-07 alpha_mix =  0.700 |ddv_scf|^2 =  6.121E-14

      iter #   8 total cpu time :  4838.6 secs   av.it.:   9.6
      thresh= 2.474E-08 alpha_mix =  0.700 |ddv_scf|^2 =  1.637E-15

     End of self-consistent calculation

     Convergence has been achieved 
 
     Number of q in the star =   12
     List of q in the star:
          1   0.166666667   0.481125224  -0.187954122
          2   0.333333333   0.384900179   0.187954122
          3  -0.166666667   0.481125224  -0.187954122
          4   0.166666667  -0.481125224   0.187954122
          5  -0.166666667  -0.481125224   0.187954122
          6   0.500000000   0.096225045  -0.187954122
          7   0.500000000  -0.096225045  -0.187954122
          8  -0.333333333  -0.384900179  -0.187954122
          9  -0.500000000  -0.096225045  -0.187954122
         10   0.333333333  -0.384900179  -0.187954122
         11  -0.500000000   0.096225045  -0.187954122
         12  -0.333333333   0.384900179  -0.187954122

     Diagonalizing the dynamical matrix

     q = (    0.166666667   0.481125224  -0.187954122 ) 

 **************************************************************************
     freq (    1) =       9.215957 [THz] =     307.411221 [cm-1]
     freq (    2) =       9.215957 [THz] =     307.411221 [cm-1]
     freq (    3) =      19.132243 [THz] =     638.182936 [cm-1]
     freq (    4) =      19.132243 [THz] =     638.182936 [cm-1]
     freq (    5) =      20.418423 [THz] =     681.085277 [cm-1]
     freq (    6) =      20.418423 [THz] =     681.085277 [cm-1]
     freq (    7) =      30.552059 [THz] =    1019.106985 [cm-1]
     freq (    8) =      30.552059 [THz] =    1019.106985 [cm-1]
     freq (    9) =      37.239387 [THz] =    1242.172254 [cm-1]
     freq (   10) =      37.239387 [THz] =    1242.172254 [cm-1]
     freq (   11) =      38.894889 [THz] =    1297.393850 [cm-1]
     freq (   12) =      38.894889 [THz] =    1297.393850 [cm-1]
 **************************************************************************

     Calculation of q =    0.1666667   0.5773503   0.0000000
 
     G-vector sticks info
     --------------------
     sticks:   dense  smooth     PW     G-vecs:    dense   smooth      PW
     Sum         433     433    163                19375    19375    4619
 

     Title: 
     phonons for BN                                                             


     bravais-lattice index     =            4
     lattice parameter (alat)  =       4.7319  a.u.
     unit-cell volume          =     244.0890 (a.u.)^3
     number of atoms/cell      =            4
     number of atomic types    =            2
     number of electrons       =        16.00
     number of Kohn-Sham states=           12
     kinetic-energy cutoff     =      70.0000  Ry
     charge density cutoff     =     280.0000  Ry
     Exchange-correlation= PZ
                           (   1   1   0   0   0   0   0)

     celldm(1)=   4.731874  celldm(2)=   0.000000  celldm(3)=   2.660224
     celldm(4)=   0.000000  celldm(5)=   0.000000  celldm(6)=   0.000000

     crystal axes: (cart. coord. in units of alat)
               a(1) = (   1.000000   0.000000   0.000000 )  
               a(2) = (  -0.500000   0.866025   0.000000 )  
               a(3) = (   0.000000   0.000000   2.660224 )  

     reciprocal axes: (cart. coord. in units 2 pi/alat)
               b(1) = (  1.000000  0.577350  0.000000 )  
               b(2) = (  0.000000  1.154701  0.000000 )  
               b(3) = (  0.000000  0.000000  0.375908 )  


     PseudoPot. # 1 for B  read from file:
     ./b.cpi.UPF
     MD5 check sum: aadced629ac320abbac2d4088521b25e
     Pseudo is Norm-conserving + core correction, Zval =  3.0
     Generated by new atomic code, or converted to UPF format
     Using radial grid of  453 points,  3 beta functions with: 
                l(1) =   0
                l(2) =   1
                l(3) =   2

     PseudoPot. # 2 for N  read from file:
     ./n.cpi.UPF
     MD5 check sum: ff6dad263d6aed986b71703111ab3f52
     Pseudo is Norm-conserving, Zval =  5.0
     Generated by new atomic code, or converted to UPF format
     Using radial grid of  467 points,  3 beta functions with: 
                l(1) =   0
                l(2) =   1
                l(3) =   2

     atomic species   valence    mass     pseudopotential
        B              3.00    10.81100     B ( 1.00)
        N              5.00    14.00700     N ( 1.00)

     24 Sym. Ops., with inversion, found



   Cartesian axes

     site n.     atom                  positions (alat units)
         1           B   tau(   1) = (  -0.0000000   0.5773503   0.6650559  )
         2           B   tau(   2) = (   0.5000000   0.2886751   1.9951677  )
         3           N   tau(   3) = (  -0.0000000   0.5773503   1.9951677  )
         4           N   tau(   4) = (   0.5000000   0.2886751   0.6650559  )

     number of k points=  1332

     Number of k-points >= 100: set verbosity='high' to print them.

     Dense  grid:    19375 G-vectors     FFT dimensions: (  25,  25,  72)

     Estimated max dynamical RAM per process >      13.57 MB

     Estimated total dynamical RAM >     108.54 MB

     Check: negative core charge=   -0.000032

     The potential is recalculated from file :
     ./_ph0/BN.q_61/BN.save/charge-density

     Starting wfcs are   64 atomic wfcs

     Band Structure Calculation
     Davidson diagonalization with overlap

     ethr =  6.25E-11,  avg # of iterations = 23.0

     total cpu time spent up to now is      550.9 secs

     End of band structure calculation

     Number of k-points >= 100: set verbosity='high' to print the bands.

     highest occupied, lowest unoccupied level (ev):     4.4224    8.5565

     Writing output data file ./_ph0/BN.q_61/BN.save/

     phonons for BN                                                             

     bravais-lattice index     =            4
     lattice parameter (alat)  =       4.7319  a.u.
     unit-cell volume          =     244.0890 (a.u.)^3
     number of atoms/cell      =            4
     number of atomic types    =            2
     kinetic-energy cut-off    =      70.0000  Ry
     charge density cut-off    =     280.0000  Ry
     convergence threshold     =      1.0E-14
     beta                      =       0.7000
     number of iterations used =            4
     Exchange-correlation= PZ
                           (   1   1   0   0   0   0   0)


     celldm(1)=    4.73187  celldm(2)=    0.00000  celldm(3)=    2.66022
     celldm(4)=    0.00000  celldm(5)=    0.00000  celldm(6)=    0.00000

     crystal axes: (cart. coord. in units of alat)
               a(1) = (  1.0000  0.0000  0.0000 )  
               a(2) = ( -0.5000  0.8660  0.0000 )  
               a(3) = (  0.0000  0.0000  2.6602 )  

     reciprocal axes: (cart. coord. in units 2 pi/alat)
               b(1) = (  1.0000  0.5774  0.0000 )  
               b(2) = (  0.0000  1.1547  0.0000 )  
               b(3) = (  0.0000  0.0000  0.3759 )  


     Atoms inside the unit cell: 

     Cartesian axes

     site n.  atom      mass           positions (alat units)
        1     B   10.8110   tau(    1) = (   -0.00000    0.57735    0.66506  )
        2     B   10.8110   tau(    2) = (    0.50000    0.28868    1.99517  )
        3     N   14.0070   tau(    3) = (   -0.00000    0.57735    1.99517  )
        4     N   14.0070   tau(    4) = (    0.50000    0.28868    0.66506  )

     Computing dynamical matrix for 
                    q = (   0.1666667   0.5773503   0.0000000 )
 
      4 Sym.Ops. (no q -> -q+G )


     G cutoff =  158.8052  (  19375 G-vectors)     FFT grid: ( 25, 25, 72)
     number of k points=  1332

     PseudoPot. # 1 for B  read from file:
     ./b.cpi.UPF
     MD5 check sum: aadced629ac320abbac2d4088521b25e
     Pseudo is Norm-conserving + core correction, Zval =  3.0
     Generated by new atomic code, or converted to UPF format
     Using radial grid of  453 points,  3 beta functions with: 
                l(1) =   0
                l(2) =   1
                l(3) =   2

     PseudoPot. # 2 for N  read from file:
     ./n.cpi.UPF
     MD5 check sum: ff6dad263d6aed986b71703111ab3f52
     Pseudo is Norm-conserving, Zval =  5.0
     Generated by new atomic code, or converted to UPF format
     Using radial grid of  467 points,  3 beta functions with: 
                l(1) =   0
                l(2) =   1
                l(3) =   2

     Mode symmetry, C_2v (mm2)  point group:


     Atomic displacements:
     There are  12 irreducible representations

     Representation     1      1 modes -A_1  D_1  S_1  To be done

     Representation     2      1 modes -A_1  D_1  S_1  To be done

     Representation     3      1 modes -A_1  D_1  S_1  To be done

     Representation     4      1 modes -A_1  D_1  S_1  To be done

     Representation     5      1 modes -A_2  D_2  S_2  To be done

     Representation     6      1 modes -A_2  D_2  S_2  To be done

     Representation     7      1 modes -B_1  D_3  S_3  To be done

     Representation     8      1 modes -B_1  D_3  S_3  To be done

     Representation     9      1 modes -B_2  D_4  S_4  To be done

     Representation    10      1 modes -B_2  D_4  S_4  To be done

     Representation    11      1 modes -B_2  D_4  S_4  To be done

     Representation    12      1 modes -B_2  D_4  S_4  To be done



     Alpha used in Ewald sum =   2.8000
     PHONON       :      1h13m CPU      1h21m WALL



     Representation #  1 mode #   1

     Self-consistent Calculation

      iter #   1 total cpu time :  4883.3 secs   av.it.:   6.8
      thresh= 1.000E-02 alpha_mix =  0.700 |ddv_scf|^2 =  2.454E-05

      iter #   2 total cpu time :  4890.0 secs   av.it.:  10.0
      thresh= 4.954E-04 alpha_mix =  0.700 |ddv_scf|^2 =  1.078E-05

      iter #   3 total cpu time :  4896.5 secs   av.it.:   9.4
      thresh= 3.283E-04 alpha_mix =  0.700 |ddv_scf|^2 =  7.585E-08

      iter #   4 total cpu time :  4903.4 secs   av.it.:  10.0
      thresh= 2.754E-05 alpha_mix =  0.700 |ddv_scf|^2 =  1.666E-08

      iter #   5 total cpu time :  4910.0 secs   av.it.:   9.4
      thresh= 1.291E-05 alpha_mix =  0.700 |ddv_scf|^2 =  1.024E-10

      iter #   6 total cpu time :  4916.6 secs   av.it.:   9.8
      thresh= 1.012E-06 alpha_mix =  0.700 |ddv_scf|^2 =  5.757E-13

      iter #   7 total cpu time :  4922.8 secs   av.it.:   9.0
      thresh= 7.588E-08 alpha_mix =  0.700 |ddv_scf|^2 =  3.841E-14

      iter #   8 total cpu time :  4929.3 secs   av.it.:   9.6
      thresh= 1.960E-08 alpha_mix =  0.700 |ddv_scf|^2 =  2.670E-16

     End of self-consistent calculation

     Convergence has been achieved 


     Representation #  2 mode #   2

     Self-consistent Calculation

      iter #   1 total cpu time :  4934.4 secs   av.it.:   6.0
      thresh= 1.000E-02 alpha_mix =  0.700 |ddv_scf|^2 =  5.050E-06

      iter #   2 total cpu time :  4941.3 secs   av.it.:  10.1
      thresh= 2.247E-04 alpha_mix =  0.700 |ddv_scf|^2 =  4.601E-06

      iter #   3 total cpu time :  4947.8 secs   av.it.:   9.5
      thresh= 2.145E-04 alpha_mix =  0.700 |ddv_scf|^2 =  8.089E-08

      iter #   4 total cpu time :  4954.3 secs   av.it.:   9.6
      thresh= 2.844E-05 alpha_mix =  0.700 |ddv_scf|^2 =  2.365E-09

      iter #   5 total cpu time :  4960.9 secs   av.it.:   9.7
      thresh= 4.863E-06 alpha_mix =  0.700 |ddv_scf|^2 =  1.176E-10

      iter #   6 total cpu time :  4967.8 secs   av.it.:   9.8
      thresh= 1.084E-06 alpha_mix =  0.700 |ddv_scf|^2 =  2.019E-12

      iter #   7 total cpu time :  4974.3 secs   av.it.:   9.3
      thresh= 1.421E-07 alpha_mix =  0.700 |ddv_scf|^2 =  4.750E-14

      iter #   8 total cpu time :  4980.7 secs   av.it.:   9.5
      thresh= 2.180E-08 alpha_mix =  0.700 |ddv_scf|^2 =  3.996E-16

     End of self-consistent calculation

     Convergence has been achieved 


     Representation #  3 mode #   3

     Self-consistent Calculation

      iter #   1 total cpu time :  4985.8 secs   av.it.:   5.9
      thresh= 1.000E-02 alpha_mix =  0.700 |ddv_scf|^2 =  1.742E-06

      iter #   2 total cpu time :  4992.7 secs   av.it.:  10.3
      thresh= 1.320E-04 alpha_mix =  0.700 |ddv_scf|^2 =  1.929E-06

      iter #   3 total cpu time :  4999.3 secs   av.it.:   9.5
      thresh= 1.389E-04 alpha_mix =  0.700 |ddv_scf|^2 =  2.249E-08

      iter #   4 total cpu time :  5005.8 secs   av.it.:   9.5
      thresh= 1.500E-05 alpha_mix =  0.700 |ddv_scf|^2 =  1.105E-09

      iter #   5 total cpu time :  5012.5 secs   av.it.:   9.9
      thresh= 3.324E-06 alpha_mix =  0.700 |ddv_scf|^2 =  1.183E-10

      iter #   6 total cpu time :  5019.2 secs   av.it.:   9.9
      thresh= 1.087E-06 alpha_mix =  0.700 |ddv_scf|^2 =  5.634E-12

      iter #   7 total cpu time :  5025.8 secs   av.it.:   9.5
      thresh= 2.374E-07 alpha_mix =  0.700 |ddv_scf|^2 =  4.491E-14

      iter #   8 total cpu time :  5032.2 secs   av.it.:   9.5
      thresh= 2.119E-08 alpha_mix =  0.700 |ddv_scf|^2 =  8.176E-16

     End of self-consistent calculation

     Convergence has been achieved 


     Representation #  4 mode #   4

     Self-consistent Calculation

      iter #   1 total cpu time :  5037.7 secs   av.it.:   6.7
      thresh= 1.000E-02 alpha_mix =  0.700 |ddv_scf|^2 =  1.760E-05

      iter #   2 total cpu time :  5044.6 secs   av.it.:  10.0
      thresh= 4.195E-04 alpha_mix =  0.700 |ddv_scf|^2 =  8.432E-06

      iter #   3 total cpu time :  5051.0 secs   av.it.:   9.4
      thresh= 2.904E-04 alpha_mix =  0.700 |ddv_scf|^2 =  2.419E-08

      iter #   4 total cpu time :  5057.7 secs   av.it.:  10.0
      thresh= 1.555E-05 alpha_mix =  0.700 |ddv_scf|^2 =  3.260E-09

      iter #   5 total cpu time :  5064.4 secs   av.it.:   9.8
      thresh= 5.709E-06 alpha_mix =  0.700 |ddv_scf|^2 =  3.010E-10

      iter #   6 total cpu time :  5071.0 secs   av.it.:   9.6
      thresh= 1.735E-06 alpha_mix =  0.700 |ddv_scf|^2 =  1.869E-12

      iter #   7 total cpu time :  5077.6 secs   av.it.:   9.8
      thresh= 1.367E-07 alpha_mix =  0.700 |ddv_scf|^2 =  3.443E-14

      iter #   8 total cpu time :  5084.0 secs   av.it.:   9.4
      thresh= 1.856E-08 alpha_mix =  0.700 |ddv_scf|^2 =  7.048E-16

     End of self-consistent calculation

     Convergence has been achieved 


     Representation #  5 mode #   5

     Self-consistent Calculation

      iter #   1 total cpu time :  5089.4 secs   av.it.:   6.1
      thresh= 1.000E-02 alpha_mix =  0.700 |ddv_scf|^2 =  4.060E-06

      iter #   2 total cpu time :  5096.3 secs   av.it.:  10.0
      thresh= 2.015E-04 alpha_mix =  0.700 |ddv_scf|^2 =  5.819E-08

      iter #   3 total cpu time :  5103.0 secs   av.it.:  10.0
      thresh= 2.412E-05 alpha_mix =  0.700 |ddv_scf|^2 =  7.695E-11

      iter #   4 total cpu time :  5109.6 secs   av.it.:   9.8
      thresh= 8.772E-07 alpha_mix =  0.700 |ddv_scf|^2 =  2.861E-13

      iter #   5 total cpu time :  5116.2 secs   av.it.:   9.9
      thresh= 5.348E-08 alpha_mix =  0.700 |ddv_scf|^2 =  4.211E-15

     End of self-consistent calculation

     Convergence has been achieved 


     Representation #  6 mode #   6

     Self-consistent Calculation

      iter #   1 total cpu time :  5121.0 secs   av.it.:   5.2
      thresh= 1.000E-02 alpha_mix =  0.700 |ddv_scf|^2 =  1.443E-07

      iter #   2 total cpu time :  5127.5 secs   av.it.:   9.6
      thresh= 3.798E-05 alpha_mix =  0.700 |ddv_scf|^2 =  5.368E-09

      iter #   3 total cpu time :  5134.0 secs   av.it.:   9.4
      thresh= 7.327E-06 alpha_mix =  0.700 |ddv_scf|^2 =  1.517E-10

      iter #   4 total cpu time :  5140.4 secs   av.it.:   9.4
      thresh= 1.232E-06 alpha_mix =  0.700 |ddv_scf|^2 =  6.060E-13

      iter #   5 total cpu time :  5147.2 secs   av.it.:  10.0
      thresh= 7.785E-08 alpha_mix =  0.700 |ddv_scf|^2 =  1.245E-14

      iter #   6 total cpu time :  5153.8 secs   av.it.:   9.9
      thresh= 1.116E-08 alpha_mix =  0.700 |ddv_scf|^2 =  6.257E-17

     End of self-consistent calculation

     Convergence has been achieved 


     Representation #  7 mode #   7

     Self-consistent Calculation

      iter #   1 total cpu time :  5158.7 secs   av.it.:   5.2
      thresh= 1.000E-02 alpha_mix =  0.700 |ddv_scf|^2 =  2.647E-07

      iter #   2 total cpu time :  5165.3 secs   av.it.:   9.8
      thresh= 5.145E-05 alpha_mix =  0.700 |ddv_scf|^2 =  6.092E-09

      iter #   3 total cpu time :  5172.2 secs   av.it.:   9.9
      thresh= 7.805E-06 alpha_mix =  0.700 |ddv_scf|^2 =  4.924E-10

      iter #   4 total cpu time :  5178.8 secs   av.it.:   9.7
      thresh= 2.219E-06 alpha_mix =  0.700 |ddv_scf|^2 =  3.324E-12

      iter #   5 total cpu time :  5185.5 secs   av.it.:   9.8
      thresh= 1.823E-07 alpha_mix =  0.700 |ddv_scf|^2 =  2.302E-14

      iter #   6 total cpu time :  5192.3 secs   av.it.:  10.1
      thresh= 1.517E-08 alpha_mix =  0.700 |ddv_scf|^2 =  9.385E-17

     End of self-consistent calculation

     Convergence has been achieved 


     Representation #  8 mode #   8

     Self-consistent Calculation

[...]
     freq (    1) =      10.360762 [THz] =     345.597809 [cm-1]
     freq (    2) =      10.360762 [THz] =     345.597809 [cm-1]
     freq (    3) =      17.802685 [THz] =     593.833644 [cm-1]
     freq (    4) =      17.802685 [THz] =     593.833644 [cm-1]
     freq (    5) =      26.111579 [THz] =     870.988524 [cm-1]
     freq (    6) =      26.169915 [THz] =     872.934404 [cm-1]
     freq (    7) =      31.290483 [THz] =    1043.738157 [cm-1]
     freq (    8) =      31.290483 [THz] =    1043.738157 [cm-1]
     freq (    9) =      34.977032 [THz] =    1166.708217 [cm-1]
     freq (   10) =      34.977032 [THz] =    1166.708217 [cm-1]
     freq (   11) =      37.334564 [THz] =    1245.347000 [cm-1]
     freq (   12) =      37.389725 [THz] =    1247.186989 [cm-1]
 **************************************************************************

     Mode symmetry, C_3v (3m)   point group:

     freq (  1 -  2) =        345.6  [cm-1]   --> E    L_3           
     freq (  3 -  4) =        593.8  [cm-1]   --> E    L_3           
     freq (  5 -  5) =        871.0  [cm-1]   --> A_2  L_2           
     freq (  6 -  6) =        872.9  [cm-1]   --> A_1  L_1           
     freq (  7 -  8) =       1043.7  [cm-1]   --> E    L_3           
     freq (  9 - 10) =       1166.7  [cm-1]   --> E    L_3           
     freq ( 11 - 11) =       1245.3  [cm-1]   --> A_2  L_2           
     freq ( 12 - 12) =       1247.2  [cm-1]   --> A_1  L_1           

     Calculation of q =    0.3333333   0.5773503  -0.1879541
 
     G-vector sticks info
     --------------------
     sticks:   dense  smooth     PW     G-vecs:    dense   smooth      PW
     Sum         433     433    163                19375    19375    4739
 

     Title: 
     phonons for BN                                                             


     bravais-lattice index     =            4
     lattice parameter (alat)  =       4.7319  a.u.
     unit-cell volume          =     244.0890 (a.u.)^3
     number of atoms/cell      =            4
     number of atomic types    =            2
     number of electrons       =        16.00
     number of Kohn-Sham states=           12
     kinetic-energy cutoff     =      70.0000  Ry
     charge density cutoff     =     280.0000  Ry
     Exchange-correlation= PZ
                           (   1   1   0   0   0   0   0)

     celldm(1)=   4.731874  celldm(2)=   0.000000  celldm(3)=   2.660224
     celldm(4)=   0.000000  celldm(5)=   0.000000  celldm(6)=   0.000000

     crystal axes: (cart. coord. in units of alat)
               a(1) = (   1.000000   0.000000   0.000000 )  
               a(2) = (  -0.500000   0.866025   0.000000 )  
               a(3) = (   0.000000   0.000000   2.660224 )  

     reciprocal axes: (cart. coord. in units 2 pi/alat)
               b(1) = (  1.000000  0.577350  0.000000 )  
               b(2) = (  0.000000  1.154701  0.000000 )  
               b(3) = (  0.000000  0.000000  0.375908 )  


     PseudoPot. # 1 for B  read from file:
     ./b.cpi.UPF
     MD5 check sum: aadced629ac320abbac2d4088521b25e
     Pseudo is Norm-conserving + core correction, Zval =  3.0
     Generated by new atomic code, or converted to UPF format
     Using radial grid of  453 points,  3 beta functions with: 
                l(1) =   0
                l(2) =   1
                l(3) =   2

     PseudoPot. # 2 for N  read from file:
     ./n.cpi.UPF
     MD5 check sum: ff6dad263d6aed986b71703111ab3f52
     Pseudo is Norm-conserving, Zval =  5.0
     Generated by new atomic code, or converted to UPF format
     Using radial grid of  467 points,  3 beta functions with: 
                l(1) =   0
                l(2) =   1
                l(3) =   2

     atomic species   valence    mass     pseudopotential
        B              3.00    10.81100     B ( 1.00)
        N              5.00    14.00700     N ( 1.00)

     24 Sym. Ops., with inversion, found



   Cartesian axes

     site n.     atom                  positions (alat units)
         1           B   tau(   1) = (  -0.0000000   0.5773503   0.6650559  )
         2           B   tau(   2) = (   0.5000000   0.2886751   1.9951677  )
         3           N   tau(   3) = (  -0.0000000   0.5773503   1.9951677  )
         4           N   tau(   4) = (   0.5000000   0.2886751   0.6650559  )

     number of k points=   468

     Number of k-points >= 100: set verbosity='high' to print them.

     Dense  grid:    19375 G-vectors     FFT dimensions: (  25,  25,  72)

     Estimated max dynamical RAM per process >      13.57 MB

     Estimated total dynamical RAM >     108.57 MB

     Check: negative core charge=   -0.000032

     The potential is recalculated from file :
     ./_ph0/BN.q_76/BN.save/charge-density

     Starting wfcs are   64 atomic wfcs

     Band Structure Calculation
     Davidson diagonalization with overlap

     ethr =  6.25E-11,  avg # of iterations = 23.0

     total cpu time spent up to now is     1494.4 secs

     End of band structure calculation

     Number of k-points >= 100: set verbosity='high' to print the bands.

     highest occupied, lowest unoccupied level (ev):     4.4224    8.5565

     Writing output data file ./_ph0/BN.q_76/BN.save/

     phonons for BN                                                             

     bravais-lattice index     =            4
     lattice parameter (alat)  =       4.7319  a.u.
     unit-cell volume          =     244.0890 (a.u.)^3
     number of atoms/cell      =            4
     number of atomic types    =            2
     kinetic-energy cut-off    =      70.0000  Ry
     charge density cut-off    =     280.0000  Ry
     convergence threshold     =      1.0E-14
     beta                      =       0.7000
     number of iterations used =            4
     Exchange-correlation= PZ
                           (   1   1   0   0   0   0   0)


     celldm(1)=    4.73187  celldm(2)=    0.00000  celldm(3)=    2.66022
     celldm(4)=    0.00000  celldm(5)=    0.00000  celldm(6)=    0.00000

     crystal axes: (cart. coord. in units of alat)
               a(1) = (  1.0000  0.0000  0.0000 )  
               a(2) = ( -0.5000  0.8660  0.0000 )  
               a(3) = (  0.0000  0.0000  2.6602 )  

     reciprocal axes: (cart. coord. in units 2 pi/alat)
               b(1) = (  1.0000  0.5774  0.0000 )  
               b(2) = (  0.0000  1.1547  0.0000 )  
               b(3) = (  0.0000  0.0000  0.3759 )  


     Atoms inside the unit cell: 

     Cartesian axes

     site n.  atom      mass           positions (alat units)
        1     B   10.8110   tau(    1) = (   -0.00000    0.57735    0.66506  )
        2     B   10.8110   tau(    2) = (    0.50000    0.28868    1.99517  )
        3     N   14.0070   tau(    3) = (   -0.00000    0.57735    1.99517  )
        4     N   14.0070   tau(    4) = (    0.50000    0.28868    0.66506  )

     Computing dynamical matrix for 
                    q = (   0.3333333   0.5773503  -0.1879541 )
 
     12 Sym.Ops. (no q -> -q+G )


     G cutoff =  158.8052  (  19375 G-vectors)     FFT grid: ( 25, 25, 72)
     number of k points=   468

     PseudoPot. # 1 for B  read from file:
     ./b.cpi.UPF
     MD5 check sum: aadced629ac320abbac2d4088521b25e
     Pseudo is Norm-conserving + core correction, Zval =  3.0
     Generated by new atomic code, or converted to UPF format
     Using radial grid of  453 points,  3 beta functions with: 
                l(1) =   0
                l(2) =   1
                l(3) =   2

     PseudoPot. # 2 for N  read from file:
     ./n.cpi.UPF
     MD5 check sum: ff6dad263d6aed986b71703111ab3f52
     Pseudo is Norm-conserving, Zval =  5.0
     Generated by new atomic code, or converted to UPF format
     Using radial grid of  467 points,  3 beta functions with: 
                l(1) =   0
                l(2) =   1
                l(3) =   2


     Atomic displacements:
     There are   6 irreducible representations

     Representation     1      2 modes -  To be done

     Representation     2      2 modes -  To be done

     Representation     3      2 modes -  To be done

     Representation     4      2 modes -  To be done

     Representation     5      2 modes -  To be done

     Representation     6      2 modes -  To be done



     Alpha used in Ewald sum =   2.8000
     PHONON       :      5h51m CPU      6h32m WALL



     Representation #  1 modes #   1  2

     Self-consistent Calculation

      iter #   1 total cpu time : 23535.5 secs   av.it.:   6.6
      thresh= 1.000E-02 alpha_mix =  0.700 |ddv_scf|^2 =  3.315E-06

      iter #   2 total cpu time : 23540.7 secs   av.it.:  10.9
      thresh= 1.821E-04 alpha_mix =  0.700 |ddv_scf|^2 =  3.878E-07

      iter #   3 total cpu time : 23545.8 secs   av.it.:  10.4
      thresh= 6.227E-05 alpha_mix =  0.700 |ddv_scf|^2 =  1.277E-10

      iter #   4 total cpu time : 23550.9 secs   av.it.:  10.8
      thresh= 1.130E-06 alpha_mix =  0.700 |ddv_scf|^2 =  7.046E-13

      iter #   5 total cpu time : 23555.6 secs   av.it.:   9.9
      thresh= 8.394E-08 alpha_mix =  0.700 |ddv_scf|^2 =  6.824E-15

     End of self-consistent calculation

     Convergence has been achieved 


     Representation #  2 modes #   3  4

     Self-consistent Calculation

      iter #   1 total cpu time : 23559.8 secs   av.it.:   7.0
      thresh= 1.000E-02 alpha_mix =  0.700 |ddv_scf|^2 =  2.420E-06

      iter #   2 total cpu time : 23565.2 secs   av.it.:  11.5
      thresh= 1.556E-04 alpha_mix =  0.700 |ddv_scf|^2 =  6.987E-07

      iter #   3 total cpu time : 23570.4 secs   av.it.:  10.8
      thresh= 8.359E-05 alpha_mix =  0.700 |ddv_scf|^2 =  6.063E-09

      iter #   4 total cpu time : 23575.7 secs   av.it.:  11.0
      thresh= 7.787E-06 alpha_mix =  0.700 |ddv_scf|^2 =  6.064E-12

      iter #   5 total cpu time : 23580.8 secs   av.it.:  10.8
      thresh= 2.462E-07 alpha_mix =  0.700 |ddv_scf|^2 =  2.154E-13

      iter #   6 total cpu time : 23585.9 secs   av.it.:  10.5
      thresh= 4.641E-08 alpha_mix =  0.700 |ddv_scf|^2 =  8.078E-16

     End of self-consistent calculation

     Convergence has been achieved 


     Representation #  3 modes #   5  6

     Self-consistent Calculation

      iter #   1 total cpu time : 23589.5 secs   av.it.:   5.6
      thresh= 1.000E-02 alpha_mix =  0.700 |ddv_scf|^2 =  7.437E-08

      iter #   2 total cpu time : 23595.0 secs   av.it.:  11.3
      thresh= 2.727E-05 alpha_mix =  0.700 |ddv_scf|^2 =  5.285E-08

      iter #   3 total cpu time : 23600.1 secs   av.it.:  10.7
      thresh= 2.299E-05 alpha_mix =  0.700 |ddv_scf|^2 =  3.345E-09

      iter #   4 total cpu time : 23605.3 secs   av.it.:  10.8
      thresh= 5.784E-06 alpha_mix =  0.700 |ddv_scf|^2 =  1.323E-11

      iter #   5 total cpu time : 23610.4 secs   av.it.:  10.6
      thresh= 3.637E-07 alpha_mix =  0.700 |ddv_scf|^2 =  4.595E-14

      iter #   6 total cpu time : 23615.6 secs   av.it.:  11.1
      thresh= 2.144E-08 alpha_mix =  0.700 |ddv_scf|^2 =  2.541E-16

     End of self-consistent calculation

     Convergence has been achieved 


     Representation #  4 modes #   7  8

     Self-consistent Calculation

      iter #   1 total cpu time : 23619.3 secs   av.it.:   5.8
      thresh= 1.000E-02 alpha_mix =  0.700 |ddv_scf|^2 =  4.090E-07

      iter #   2 total cpu time : 23624.5 secs   av.it.:  10.9
      thresh= 6.395E-05 alpha_mix =  0.700 |ddv_scf|^2 =  4.132E-08

      iter #   3 total cpu time : 23629.6 secs   av.it.:  10.6
      thresh= 2.033E-05 alpha_mix =  0.700 |ddv_scf|^2 =  2.277E-10

      iter #   4 total cpu time : 23634.6 secs   av.it.:  10.4
      thresh= 1.509E-06 alpha_mix =  0.700 |ddv_scf|^2 =  2.667E-13

      iter #   5 total cpu time : 23639.7 secs   av.it.:  10.8
      thresh= 5.164E-08 alpha_mix =  0.700 |ddv_scf|^2 =  5.679E-15

     End of self-consistent calculation

     Convergence has been achieved 


     Representation #  5 modes #   9 10

     Self-consistent Calculation

      iter #   1 total cpu time : 23643.9 secs   av.it.:   7.0
      thresh= 1.000E-02 alpha_mix =  0.700 |ddv_scf|^2 =  3.730E-06

      iter #   2 total cpu time : 23649.3 secs   av.it.:  11.3
      thresh= 1.931E-04 alpha_mix =  0.700 |ddv_scf|^2 =  1.429E-06

      iter #   3 total cpu time : 23654.4 secs   av.it.:  10.4
      thresh= 1.195E-04 alpha_mix =  0.700 |ddv_scf|^2 =  1.510E-09

      iter #   4 total cpu time : 23659.7 secs   av.it.:  11.1
      thresh= 3.886E-06 alpha_mix =  0.700 |ddv_scf|^2 =  6.910E-12

      iter #   5 total cpu time : 23664.9 secs   av.it.:  10.8
      thresh= 2.629E-07 alpha_mix =  0.700 |ddv_scf|^2 =  2.694E-13

      iter #   6 total cpu time : 23669.9 secs   av.it.:  10.5
      thresh= 5.191E-08 alpha_mix =  0.700 |ddv_scf|^2 =  7.786E-16

     End of self-consistent calculation

     Convergence has been achieved 


     Representation #  6 modes #  11 12

     Self-consistent Calculation

      iter #   1 total cpu time : 23673.6 secs   av.it.:   6.0
      thresh= 1.000E-02 alpha_mix =  0.700 |ddv_scf|^2 =  9.728E-07

      iter #   2 total cpu time : 23678.9 secs   av.it.:  11.1
      thresh= 9.863E-05 alpha_mix =  0.700 |ddv_scf|^2 =  1.260E-06

      iter #   3 total cpu time : 23684.0 secs   av.it.:  10.3
      thresh= 1.122E-04 alpha_mix =  0.700 |ddv_scf|^2 =  3.096E-09

      iter #   4 total cpu time : 23689.1 secs   av.it.:  10.6
      thresh= 5.564E-06 alpha_mix =  0.700 |ddv_scf|^2 =  2.975E-11

      iter #   5 total cpu time : 23694.2 secs   av.it.:  10.4
      thresh= 5.454E-07 alpha_mix =  0.700 |ddv_scf|^2 =  3.325E-13

      iter #   6 total cpu time : 23699.3 secs   av.it.:  10.4
      thresh= 5.766E-08 alpha_mix =  0.700 |ddv_scf|^2 =  3.057E-16

     End of self-consistent calculation

     Convergence has been achieved 
 
     Number of q in the star =    2
     List of q in the star:
          1   0.333333333   0.577350269  -0.187954122
          2  -0.333333333  -0.577350269  -0.187954122

     Diagonalizing the dynamical matrix

     q = (    0.333333333   0.577350269  -0.187954122 ) 

 **************************************************************************
     freq (    1) =      10.372542 [THz] =     345.990751 [cm-1]
     freq (    2) =      10.372542 [THz] =     345.990751 [cm-1]
     freq (    3) =      17.802243 [THz] =     593.818903 [cm-1]
     freq (    4) =      17.802243 [THz] =     593.818903 [cm-1]
     freq (    5) =      26.143635 [THz] =     872.057804 [cm-1]
     freq (    6) =      26.143635 [THz] =     872.057804 [cm-1]
     freq (    7) =      31.289668 [THz] =    1043.710973 [cm-1]
     freq (    8) =      31.289668 [THz] =    1043.710973 [cm-1]
     freq (    9) =      34.977563 [THz] =    1166.725929 [cm-1]
     freq (   10) =      34.977563 [THz] =    1166.725929 [cm-1]
     freq (   11) =      37.363868 [THz] =    1246.324488 [cm-1]
     freq (   12) =      37.363868 [THz] =    1246.324488 [cm-1]
 **************************************************************************
 
     init_run     :      1.95s CPU      2.47s WALL (      18 calls)
     electrons    :   1183.49s CPU   1199.30s WALL (      18 calls)

     Called by init_run:
     wfcinit      :      0.00s CPU      0.02s WALL (      18 calls)
     potinit      :      0.15s CPU      0.62s WALL (      18 calls)
     hinit0       :      0.72s CPU      0.72s WALL (      18 calls)

     Called by electrons:
     c_bands      :   1183.48s CPU   1199.29s WALL (      18 calls)
     v_of_rho     :      0.04s CPU      0.04s WALL (      20 calls)

     Called by c_bands:
     init_us_2    :    111.52s CPU    142.28s WALL (  291408 calls)
     cegterg      :    764.40s CPU    775.18s WALL (    8701 calls)

     Called by sum_band:

     Called by *egterg:
     h_psi        :  14810.92s CPU  15058.63s WALL ( 3112574 calls)
     g_psi        :      4.44s CPU      4.52s WALL (  120912 calls)
     cdiaghg      :     38.00s CPU     38.58s WALL (  126192 calls)

     Called by h_psi:
     h_psi:calbec :    974.29s CPU    989.45s WALL ( 3112574 calls)
     vloc_psi     :  12880.34s CPU  13095.77s WALL ( 3112574 calls)
     add_vuspsi   :    878.11s CPU    896.32s WALL ( 3112574 calls)

     General routines
     calbec       :   1831.75s CPU   1868.94s WALL ( 6247263 calls)
     fft          :      3.98s CPU      4.07s WALL (    9538 calls)
     ffts         :     15.28s CPU     15.57s WALL (   34260 calls)
     fftw         :  13654.78s CPU  13919.19s WALL (52597250 calls)
     davcio       :    132.94s CPU   2096.14s WALL ( 1312330 calls)
 
     Parallel routines
 
     PHONON       :      5h54m CPU      6h34m WALL

     INITIALIZATION: 
     phq_setup    :      0.14s CPU      0.49s WALL (      19 calls)
     phq_init     :     20.60s CPU     23.63s WALL (      19 calls)
 
     phq_init     :     20.60s CPU     23.63s WALL (      19 calls)
     set_drhoc    :      1.86s CPU      1.87s WALL (      55 calls)
     init_vloc    :      0.06s CPU      0.06s WALL (      20 calls)
     init_us_1    :      0.28s CPU      0.28s WALL (      20 calls)
 
     DYNAMICAL MATRIX:
     dynmat0      :     12.19s CPU     13.06s WALL (      18 calls)
     phqscf       :  20035.11s CPU  22447.61s WALL (      19 calls)
     dynmatrix    :      0.06s CPU      0.13s WALL (      19 calls)
 
     phqscf       :  20035.11s CPU  22447.61s WALL (      19 calls)
     solve_linter :  19958.92s CPU  22359.26s WALL (     188 calls)
     drhodv       :     75.78s CPU     87.15s WALL (     188 calls)
 
     dynmat0      :     12.19s CPU     13.06s WALL (      18 calls)
     dynmat_us    :     10.68s CPU     11.47s WALL (      18 calls)
     d2ionq       :      0.17s CPU      0.17s WALL (      18 calls)
     dynmatcc     :      1.29s CPU      1.30s WALL (      18 calls)
 
     dynmat_us    :     10.68s CPU     11.47s WALL (      18 calls)
 
     phqscf       :  20035.11s CPU  22447.61s WALL (      19 calls)
     solve_linter :  19958.92s CPU  22359.26s WALL (     188 calls)
 
     solve_linter :  19958.92s CPU  22359.26s WALL (     188 calls)
     dvqpsi_us    :    286.08s CPU    291.40s WALL (   32004 calls)
     ortho        :     62.76s CPU     65.02s WALL (  262318 calls)
     cgsolve      :  16260.98s CPU  16547.09s WALL (  262318 calls)
     incdrhoscf   :   1381.90s CPU   1434.41s WALL (  262318 calls)
     vpsifft      :   1142.24s CPU   1194.04s WALL (  230314 calls)
     dv_of_drho   :      2.95s CPU      3.04s WALL (    1647 calls)
     mix_pot      :      1.78s CPU     42.84s WALL (    1448 calls)
     psymdvscf    :      6.84s CPU      6.89s WALL (    1108 calls)
 
     dvqpsi_us    :    286.08s CPU    291.40s WALL (   32004 calls)
     dvqpsi_us_on :     33.08s CPU     33.47s WALL (   32004 calls)
 
     cgsolve      :  16260.98s CPU  16547.09s WALL (  262318 calls)
     ch_psi       :  15803.07s CPU  16073.35s WALL ( 2977681 calls)
 
     ch_psi       :  15803.07s CPU  16073.35s WALL ( 2977681 calls)
     h_psi        :  14810.92s CPU  15058.63s WALL ( 3112574 calls)
     last         :   1597.49s CPU   1629.20s WALL ( 2977681 calls)
 
     h_psi        :  14810.92s CPU  15058.63s WALL ( 3112574 calls)
     add_vuspsi   :    878.11s CPU    896.32s WALL ( 3112574 calls)
 
     incdrhoscf   :   1381.90s CPU   1434.41s WALL (  262318 calls)
 
 
      General routines
     calbec       :   1831.75s CPU   1868.94s WALL ( 6247263 calls)
     fft          :      3.98s CPU      4.07s WALL (    9538 calls)
     ffts         :     15.28s CPU     15.57s WALL (   34260 calls)
     fftw         :  13654.78s CPU  13919.19s WALL (52597250 calls)
     davcio       :    132.94s CPU   2096.14s WALL ( 1312330 calls)
     write_rec    :      2.14s CPU     13.05s WALL (    1636 calls)
 
 
     PHONON       :      5h54m CPU      6h34m WALL

 
   This run was terminated on:  23:30:20  14Aug2021            

=------------------------------------------------------------------------------=
   JOB DONE.
=------------------------------------------------------------------------------=
