
     Program Q2R v.6.5 starts on 15Aug2021 at 10:18:59 

     This program is part of the open-source Quantum ESPRESSO suite
     for quantum simulation of materials; please cite
         "P. Giannozzi et al., J. Phys.:Condens. Matter 21 395502 (2009);
         "P. Giannozzi et al., J. Phys.:Condens. Matter 29 465901 (2017);
          URL http://www.quantum-espresso.org", 
     in publications or presentations arising from this work. More details at
     http://www.quantum-espresso.org/quote

     Parallel version (MPI), running on     1 processors

     MPI processes distributed on     1 nodes

     reading grid info from file BN.dyn0    
  reading force constants from file BN.dyn1
 macroscopic fields = T
   4.80973   0.00000   0.00000
   0.00000   4.80973   0.00000
   0.00000   0.00000   2.73166
  na=            1
   2.70056   0.00000   0.00000
   0.00000   2.70056   0.00000
   0.00000   0.00000   0.75815
  na=            2
   2.70056   0.00000   0.00000
   0.00000   2.70056   0.00000
   0.00000   0.00000   0.75815
  na=            3
  -2.69943   0.00000   0.00000
   0.00000  -2.69943   0.00000
   0.00000   0.00000  -0.75708
  na=            4
  -2.69943   0.00000   0.00000
   0.00000  -2.69943   0.00000
   0.00000   0.00000  -0.75708
  nqs=            1
 q=   0.00000000  0.00000000  0.00000000
  reading force constants from file BN.dyn2
  nqs=            2
 q=   0.00000000  0.00000000  0.06265137
 q=   0.00000000  0.00000000 -0.06265137
  reading force constants from file BN.dyn3
  nqs=            2
 q=   0.00000000  0.00000000  0.12530275
 q=   0.00000000  0.00000000 -0.12530275
  reading force constants from file BN.dyn4
  nqs=            1
 q=   0.00000000  0.00000000 -0.18795412
  reading force constants from file BN.dyn5
  nqs=            6
 q=   0.00000000  0.09622504  0.00000000
 q=  -0.08333333 -0.04811252  0.00000000
 q=   0.08333333 -0.04811252  0.00000000
 q=   0.08333333  0.04811252  0.00000000
 q=  -0.08333333  0.04811252  0.00000000
 q=   0.00000000 -0.09622504  0.00000000
  reading force constants from file BN.dyn6
  nqs=           12
 q=   0.00000000  0.09622504  0.06265137
 q=   0.00000000  0.09622504 -0.06265137
 q=  -0.08333333 -0.04811252  0.06265137
 q=   0.08333333 -0.04811252  0.06265137
 q=   0.08333333  0.04811252  0.06265137
 q=  -0.08333333  0.04811252  0.06265137
 q=   0.00000000 -0.09622504  0.06265137
 q=   0.08333333  0.04811252 -0.06265137
 q=   0.00000000 -0.09622504 -0.06265137
 q=   0.08333333 -0.04811252 -0.06265137
 q=  -0.08333333  0.04811252 -0.06265137
 q=  -0.08333333 -0.04811252 -0.06265137
  reading force constants from file BN.dyn7
  nqs=           12
 q=   0.00000000  0.09622504  0.12530275
 q=   0.00000000  0.09622504 -0.12530275
 q=  -0.08333333 -0.04811252  0.12530275
 q=   0.08333333 -0.04811252  0.12530275
 q=   0.08333333  0.04811252  0.12530275
 q=  -0.08333333  0.04811252  0.12530275
 q=   0.00000000 -0.09622504  0.12530275
 q=   0.08333333  0.04811252 -0.12530275
 q=   0.00000000 -0.09622504 -0.12530275
 q=   0.08333333 -0.04811252 -0.12530275
 q=  -0.08333333  0.04811252 -0.12530275
 q=  -0.08333333 -0.04811252 -0.12530275
  reading force constants from file BN.dyn8
  nqs=            6
 q=   0.00000000  0.09622504 -0.18795412
 q=  -0.08333333 -0.04811252 -0.18795412
 q=   0.08333333 -0.04811252 -0.18795412
 q=   0.08333333  0.04811252 -0.18795412
 q=  -0.08333333  0.04811252 -0.18795412
 q=   0.00000000 -0.09622504 -0.18795412
  reading force constants from file BN.dyn9
  nqs=            6
 q=   0.00000000  0.19245009  0.00000000
 q=  -0.16666667 -0.09622504  0.00000000
 q=   0.16666667 -0.09622504  0.00000000
 q=   0.16666667  0.09622504  0.00000000
 q=  -0.16666667  0.09622504  0.00000000
 q=   0.00000000 -0.19245009  0.00000000
  reading force constants from file BN.dyn10
  nqs=           12
 q=   0.00000000  0.19245009  0.06265137
 q=   0.00000000  0.19245009 -0.06265137
 q=  -0.16666667 -0.09622504  0.06265137
 q=   0.16666667 -0.09622504  0.06265137
 q=   0.16666667  0.09622504  0.06265137
 q=  -0.16666667  0.09622504  0.06265137
 q=   0.00000000 -0.19245009  0.06265137
 q=   0.16666667  0.09622504 -0.06265137
 q=   0.00000000 -0.19245009 -0.06265137
 q=   0.16666667 -0.09622504 -0.06265137
 q=  -0.16666667  0.09622504 -0.06265137
 q=  -0.16666667 -0.09622504 -0.06265137
  reading force constants from file BN.dyn11
  nqs=           12
 q=   0.00000000  0.19245009  0.12530275
 q=   0.00000000  0.19245009 -0.12530275
 q=  -0.16666667 -0.09622504  0.12530275
 q=   0.16666667 -0.09622504  0.12530275
 q=   0.16666667  0.09622504  0.12530275
 q=  -0.16666667  0.09622504  0.12530275
 q=   0.00000000 -0.19245009  0.12530275
 q=   0.16666667  0.09622504 -0.12530275
 q=   0.00000000 -0.19245009 -0.12530275
 q=   0.16666667 -0.09622504 -0.12530275
 q=  -0.16666667  0.09622504 -0.12530275
 q=  -0.16666667 -0.09622504 -0.12530275
  reading force constants from file BN.dyn12
  nqs=            6
 q=   0.00000000  0.19245009 -0.18795412
 q=  -0.16666667 -0.09622504 -0.18795412
 q=   0.16666667 -0.09622504 -0.18795412
 q=   0.16666667  0.09622504 -0.18795412
 q=  -0.16666667  0.09622504 -0.18795412
 q=   0.00000000 -0.19245009 -0.18795412
  reading force constants from file BN.dyn13
  nqs=            6
 q=   0.00000000  0.28867514  0.00000000
 q=  -0.25000000 -0.14433757  0.00000000
 q=   0.25000000 -0.14433757  0.00000000
 q=   0.25000000  0.14433757  0.00000000
 q=  -0.25000000  0.14433757  0.00000000
 q=   0.00000000 -0.28867514  0.00000000
  reading force constants from file BN.dyn14
  nqs=           12
 q=   0.00000000  0.28867514  0.06265137
 q=   0.00000000  0.28867514 -0.06265137
 q=  -0.25000000 -0.14433757  0.06265137
 q=   0.25000000 -0.14433757  0.06265137
 q=   0.25000000  0.14433757  0.06265137
 q=  -0.25000000  0.14433757  0.06265137
 q=   0.00000000 -0.28867514  0.06265137
 q=   0.25000000  0.14433757 -0.06265137
 q=   0.00000000 -0.28867514 -0.06265137
 q=   0.25000000 -0.14433757 -0.06265137
 q=  -0.25000000  0.14433757 -0.06265137
 q=  -0.25000000 -0.14433757 -0.06265137
  reading force constants from file BN.dyn15
  nqs=           12
 q=   0.00000000  0.28867514  0.12530275
 q=   0.00000000  0.28867514 -0.12530275
 q=  -0.25000000 -0.14433757  0.12530275
 q=   0.25000000 -0.14433757  0.12530275
 q=   0.25000000  0.14433757  0.12530275
 q=  -0.25000000  0.14433757  0.12530275
 q=   0.00000000 -0.28867514  0.12530275
 q=   0.25000000  0.14433757 -0.12530275
 q=   0.00000000 -0.28867514 -0.12530275
 q=   0.25000000 -0.14433757 -0.12530275
 q=  -0.25000000  0.14433757 -0.12530275
 q=  -0.25000000 -0.14433757 -0.12530275
  reading force constants from file BN.dyn16
  nqs=            6
 q=   0.00000000  0.28867514 -0.18795412
 q=  -0.25000000 -0.14433757 -0.18795412
 q=   0.25000000 -0.14433757 -0.18795412
 q=   0.25000000  0.14433757 -0.18795412
 q=  -0.25000000  0.14433757 -0.18795412
 q=   0.00000000 -0.28867514 -0.18795412
  reading force constants from file BN.dyn17
  nqs=            6
 q=   0.00000000  0.38490018  0.00000000
 q=  -0.33333333 -0.19245009  0.00000000
 q=   0.33333333 -0.19245009  0.00000000
 q=   0.33333333  0.19245009  0.00000000
 q=  -0.33333333  0.19245009  0.00000000
 q=   0.00000000 -0.38490018  0.00000000
  reading force constants from file BN.dyn18
  nqs=           12
 q=   0.00000000  0.38490018  0.06265137
 q=   0.00000000  0.38490018 -0.06265137
 q=  -0.33333333 -0.19245009  0.06265137
 q=   0.33333333 -0.19245009  0.06265137
 q=   0.33333333  0.19245009  0.06265137
 q=  -0.33333333  0.19245009  0.06265137
 q=   0.00000000 -0.38490018  0.06265137
 q=   0.33333333  0.19245009 -0.06265137
 q=   0.00000000 -0.38490018 -0.06265137
 q=   0.33333333 -0.19245009 -0.06265137
 q=  -0.33333333  0.19245009 -0.06265137
 q=  -0.33333333 -0.19245009 -0.06265137
  reading force constants from file BN.dyn19
  nqs=           12
 q=   0.00000000  0.38490018  0.12530275
 q=   0.00000000  0.38490018 -0.12530275
 q=  -0.33333333 -0.19245009  0.12530275
 q=   0.33333333 -0.19245009  0.12530275
 q=   0.33333333  0.19245009  0.12530275
 q=  -0.33333333  0.19245009  0.12530275
 q=   0.00000000 -0.38490018  0.12530275
 q=   0.33333333  0.19245009 -0.12530275
 q=   0.00000000 -0.38490018 -0.12530275
 q=   0.33333333 -0.19245009 -0.12530275
 q=  -0.33333333  0.19245009 -0.12530275
 q=  -0.33333333 -0.19245009 -0.12530275
  reading force constants from file BN.dyn20
  nqs=            6
 q=   0.00000000  0.38490018 -0.18795412
 q=  -0.33333333 -0.19245009 -0.18795412
 q=   0.33333333 -0.19245009 -0.18795412
 q=   0.33333333  0.19245009 -0.18795412
 q=  -0.33333333  0.19245009 -0.18795412
 q=   0.00000000 -0.38490018 -0.18795412
  reading force constants from file BN.dyn21
  nqs=            6
 q=   0.00000000  0.48112522  0.00000000
 q=  -0.41666667 -0.24056261  0.00000000
 q=   0.41666667 -0.24056261  0.00000000
 q=   0.41666667  0.24056261  0.00000000
 q=  -0.41666667  0.24056261  0.00000000
 q=   0.00000000 -0.48112522  0.00000000
  reading force constants from file BN.dyn22
  nqs=           12
 q=   0.00000000  0.48112522  0.06265137
 q=   0.00000000  0.48112522 -0.06265137
 q=  -0.41666667 -0.24056261  0.06265137
 q=   0.41666667 -0.24056261  0.06265137
 q=   0.41666667  0.24056261  0.06265137
 q=  -0.41666667  0.24056261  0.06265137
 q=   0.00000000 -0.48112522  0.06265137
 q=   0.41666667  0.24056261 -0.06265137
 q=   0.00000000 -0.48112522 -0.06265137
 q=   0.41666667 -0.24056261 -0.06265137
 q=  -0.41666667  0.24056261 -0.06265137
 q=  -0.41666667 -0.24056261 -0.06265137
  reading force constants from file BN.dyn23
  nqs=           12
 q=   0.00000000  0.48112522  0.12530275
 q=   0.00000000  0.48112522 -0.12530275
 q=  -0.41666667 -0.24056261  0.12530275
 q=   0.41666667 -0.24056261  0.12530275
 q=   0.41666667  0.24056261  0.12530275
 q=  -0.41666667  0.24056261  0.12530275
 q=   0.00000000 -0.48112522  0.12530275
 q=   0.41666667  0.24056261 -0.12530275
 q=   0.00000000 -0.48112522 -0.12530275
 q=   0.41666667 -0.24056261 -0.12530275
 q=  -0.41666667  0.24056261 -0.12530275
 q=  -0.41666667 -0.24056261 -0.12530275
  reading force constants from file BN.dyn24
  nqs=            6
 q=   0.00000000  0.48112522 -0.18795412
 q=  -0.41666667 -0.24056261 -0.18795412
 q=   0.41666667 -0.24056261 -0.18795412
 q=   0.41666667  0.24056261 -0.18795412
 q=  -0.41666667  0.24056261 -0.18795412
 q=   0.00000000 -0.48112522 -0.18795412
  reading force constants from file BN.dyn25
  nqs=            3
 q=   0.00000000 -0.57735027  0.00000000
 q=  -0.50000000 -0.28867514  0.00000000
 q=  -0.50000000  0.28867514  0.00000000
  reading force constants from file BN.dyn26
  nqs=            6
 q=   0.00000000 -0.57735027  0.06265137
 q=   0.00000000 -0.57735027 -0.06265137
 q=  -0.50000000 -0.28867514  0.06265137
 q=  -0.50000000  0.28867514  0.06265137
 q=  -0.50000000 -0.28867514 -0.06265137
 q=  -0.50000000  0.28867514 -0.06265137
  reading force constants from file BN.dyn27
  nqs=            6
 q=   0.00000000 -0.57735027  0.12530275
 q=   0.00000000 -0.57735027 -0.12530275
 q=  -0.50000000 -0.28867514  0.12530275
 q=  -0.50000000  0.28867514  0.12530275
 q=  -0.50000000 -0.28867514 -0.12530275
 q=  -0.50000000  0.28867514 -0.12530275
  reading force constants from file BN.dyn28
  nqs=            3
 q=   0.00000000 -0.57735027 -0.18795412
 q=  -0.50000000 -0.28867514 -0.18795412
 q=  -0.50000000  0.28867514 -0.18795412
  reading force constants from file BN.dyn29
  nqs=            6
 q=   0.08333333  0.14433757  0.00000000
 q=  -0.08333333  0.14433757  0.00000000
 q=   0.08333333 -0.14433757  0.00000000
 q=  -0.08333333 -0.14433757  0.00000000
 q=   0.16666667  0.00000000  0.00000000
 q=  -0.16666667  0.00000000  0.00000000
  reading force constants from file BN.dyn30
  nqs=           12
 q=   0.08333333  0.14433757  0.06265137
 q=   0.08333333  0.14433757 -0.06265137
 q=  -0.08333333  0.14433757  0.06265137
 q=   0.08333333 -0.14433757 -0.06265137
 q=  -0.08333333  0.14433757 -0.06265137
 q=  -0.08333333 -0.14433757 -0.06265137
 q=   0.16666667  0.00000000  0.06265137
 q=  -0.08333333 -0.14433757  0.06265137
 q=  -0.16666667  0.00000000  0.06265137
 q=   0.08333333 -0.14433757  0.06265137
 q=   0.16666667  0.00000000 -0.06265137
 q=  -0.16666667  0.00000000 -0.06265137
  reading force constants from file BN.dyn31
  nqs=           12
 q=   0.08333333  0.14433757  0.12530275
 q=   0.08333333  0.14433757 -0.12530275
 q=  -0.08333333  0.14433757  0.12530275
 q=   0.08333333 -0.14433757 -0.12530275
 q=  -0.08333333  0.14433757 -0.12530275
 q=  -0.08333333 -0.14433757 -0.12530275
 q=   0.16666667  0.00000000  0.12530275
 q=  -0.08333333 -0.14433757  0.12530275
 q=  -0.16666667  0.00000000  0.12530275
 q=   0.08333333 -0.14433757  0.12530275
 q=   0.16666667  0.00000000 -0.12530275
 q=  -0.16666667  0.00000000 -0.12530275
  reading force constants from file BN.dyn32
  nqs=            6
 q=   0.08333333  0.14433757 -0.18795412
 q=  -0.08333333  0.14433757 -0.18795412
 q=   0.08333333 -0.14433757  0.18795412
 q=  -0.08333333 -0.14433757  0.18795412
 q=   0.16666667  0.00000000 -0.18795412
 q=  -0.16666667  0.00000000 -0.18795412
  reading force constants from file BN.dyn33
  nqs=           12
 q=   0.08333333  0.24056261  0.00000000
 q=   0.16666667  0.19245009  0.00000000
 q=  -0.08333333  0.24056261  0.00000000
 q=   0.08333333 -0.24056261  0.00000000
 q=  -0.08333333 -0.24056261  0.00000000
 q=   0.25000000  0.04811252  0.00000000
 q=   0.25000000 -0.04811252  0.00000000
 q=  -0.16666667 -0.19245009  0.00000000
 q=  -0.25000000 -0.04811252  0.00000000
 q=   0.16666667 -0.19245009  0.00000000
 q=  -0.25000000  0.04811252  0.00000000
 q=  -0.16666667  0.19245009  0.00000000
  reading force constants from file BN.dyn34
  nqs=           24
 q=   0.08333333  0.24056261  0.06265137
 q=   0.08333333  0.24056261 -0.06265137
 q=   0.16666667  0.19245009 -0.06265137
 q=   0.16666667  0.19245009  0.06265137
 q=  -0.08333333  0.24056261  0.06265137
 q=   0.08333333 -0.24056261 -0.06265137
 q=  -0.08333333  0.24056261 -0.06265137
 q=  -0.08333333 -0.24056261 -0.06265137
 q=   0.25000000  0.04811252  0.06265137
 q=   0.25000000 -0.04811252  0.06265137
 q=  -0.16666667 -0.19245009  0.06265137
 q=  -0.25000000 -0.04811252  0.06265137
 q=  -0.08333333 -0.24056261  0.06265137
 q=   0.16666667 -0.19245009  0.06265137
 q=   0.08333333 -0.24056261  0.06265137
 q=  -0.25000000  0.04811252  0.06265137
 q=  -0.16666667  0.19245009  0.06265137
 q=   0.16666667 -0.19245009 -0.06265137
 q=   0.25000000  0.04811252 -0.06265137
 q=  -0.16666667  0.19245009 -0.06265137
 q=  -0.16666667 -0.19245009 -0.06265137
 q=   0.25000000 -0.04811252 -0.06265137
 q=  -0.25000000 -0.04811252 -0.06265137
 q=  -0.25000000  0.04811252 -0.06265137
  reading force constants from file BN.dyn35
  nqs=           24
 q=   0.08333333  0.24056261  0.12530275
 q=   0.08333333  0.24056261 -0.12530275
 q=   0.16666667  0.19245009 -0.12530275
 q=   0.16666667  0.19245009  0.12530275
 q=  -0.08333333  0.24056261  0.12530275
 q=   0.08333333 -0.24056261 -0.12530275
 q=  -0.08333333  0.24056261 -0.12530275
 q=  -0.08333333 -0.24056261 -0.12530275
 q=   0.25000000  0.04811252  0.12530275
 q=   0.25000000 -0.04811252  0.12530275
 q=  -0.16666667 -0.19245009  0.12530275
 q=  -0.25000000 -0.04811252  0.12530275
 q=  -0.08333333 -0.24056261  0.12530275
 q=   0.16666667 -0.19245009  0.12530275
 q=   0.08333333 -0.24056261  0.12530275
 q=  -0.25000000  0.04811252  0.12530275
 q=  -0.16666667  0.19245009  0.12530275
 q=   0.16666667 -0.19245009 -0.12530275
 q=   0.25000000  0.04811252 -0.12530275
 q=  -0.16666667  0.19245009 -0.12530275
 q=  -0.16666667 -0.19245009 -0.12530275
 q=   0.25000000 -0.04811252 -0.12530275
 q=  -0.25000000 -0.04811252 -0.12530275
 q=  -0.25000000  0.04811252 -0.12530275
  reading force constants from file BN.dyn36
  nqs=           12
 q=   0.08333333  0.24056261 -0.18795412
 q=   0.16666667  0.19245009  0.18795412
 q=  -0.08333333  0.24056261 -0.18795412
 q=   0.08333333 -0.24056261  0.18795412
 q=  -0.08333333 -0.24056261  0.18795412
 q=   0.25000000  0.04811252 -0.18795412
 q=   0.25000000 -0.04811252 -0.18795412
 q=  -0.16666667 -0.19245009 -0.18795412
 q=  -0.25000000 -0.04811252 -0.18795412
 q=   0.16666667 -0.19245009 -0.18795412
 q=  -0.25000000  0.04811252 -0.18795412
 q=  -0.16666667  0.19245009 -0.18795412
  reading force constants from file BN.dyn37
  nqs=           12
 q=   0.08333333  0.33678766  0.00000000
 q=   0.25000000  0.24056261  0.00000000
 q=  -0.08333333  0.33678766  0.00000000
 q=   0.08333333 -0.33678766  0.00000000
 q=  -0.08333333 -0.33678766  0.00000000
 q=   0.33333333  0.09622504  0.00000000
 q=   0.33333333 -0.09622504  0.00000000
 q=  -0.25000000 -0.24056261  0.00000000
 q=  -0.33333333 -0.09622504  0.00000000
 q=   0.25000000 -0.24056261  0.00000000
 q=  -0.33333333  0.09622504  0.00000000
 q=  -0.25000000  0.24056261  0.00000000
  reading force constants from file BN.dyn38
  nqs=           24
 q=   0.08333333  0.33678766  0.06265137
 q=   0.08333333  0.33678766 -0.06265137
 q=   0.25000000  0.24056261 -0.06265137
 q=   0.25000000  0.24056261  0.06265137
 q=  -0.08333333  0.33678766  0.06265137
 q=   0.08333333 -0.33678766 -0.06265137
 q=  -0.08333333  0.33678766 -0.06265137
 q=  -0.08333333 -0.33678766 -0.06265137
 q=   0.33333333  0.09622504  0.06265137
 q=   0.33333333 -0.09622504  0.06265137
 q=  -0.25000000 -0.24056261  0.06265137
 q=  -0.33333333 -0.09622504  0.06265137
 q=  -0.08333333 -0.33678766  0.06265137
 q=   0.25000000 -0.24056261  0.06265137
 q=   0.08333333 -0.33678766  0.06265137
 q=  -0.33333333  0.09622504  0.06265137
 q=  -0.25000000  0.24056261  0.06265137
 q=   0.25000000 -0.24056261 -0.06265137
 q=   0.33333333  0.09622504 -0.06265137
 q=  -0.25000000  0.24056261 -0.06265137
 q=  -0.25000000 -0.24056261 -0.06265137
 q=   0.33333333 -0.09622504 -0.06265137
 q=  -0.33333333 -0.09622504 -0.06265137
 q=  -0.33333333  0.09622504 -0.06265137
  reading force constants from file BN.dyn39
  nqs=           24
 q=   0.08333333  0.33678766  0.12530275
 q=   0.08333333  0.33678766 -0.12530275
 q=   0.25000000  0.24056261 -0.12530275
 q=   0.25000000  0.24056261  0.12530275
 q=  -0.08333333  0.33678766  0.12530275
 q=   0.08333333 -0.33678766 -0.12530275
 q=  -0.08333333  0.33678766 -0.12530275
 q=  -0.08333333 -0.33678766 -0.12530275
 q=   0.33333333  0.09622504  0.12530275
 q=   0.33333333 -0.09622504  0.12530275
 q=  -0.25000000 -0.24056261  0.12530275
 q=  -0.33333333 -0.09622504  0.12530275
 q=  -0.08333333 -0.33678766  0.12530275
 q=   0.25000000 -0.24056261  0.12530275
 q=   0.08333333 -0.33678766  0.12530275
 q=  -0.33333333  0.09622504  0.12530275
 q=  -0.25000000  0.24056261  0.12530275
 q=   0.25000000 -0.24056261 -0.12530275
 q=   0.33333333  0.09622504 -0.12530275
 q=  -0.25000000  0.24056261 -0.12530275
 q=  -0.25000000 -0.24056261 -0.12530275
 q=   0.33333333 -0.09622504 -0.12530275
 q=  -0.33333333 -0.09622504 -0.12530275
 q=  -0.33333333  0.09622504 -0.12530275
  reading force constants from file BN.dyn40
  nqs=           12
 q=   0.08333333  0.33678766 -0.18795412
 q=   0.25000000  0.24056261  0.18795412
 q=  -0.08333333  0.33678766 -0.18795412
 q=   0.08333333 -0.33678766  0.18795412
 q=  -0.08333333 -0.33678766  0.18795412
 q=   0.33333333  0.09622504 -0.18795412
 q=   0.33333333 -0.09622504 -0.18795412
 q=  -0.25000000 -0.24056261 -0.18795412
 q=  -0.33333333 -0.09622504 -0.18795412
 q=   0.25000000 -0.24056261 -0.18795412
 q=  -0.33333333  0.09622504 -0.18795412
 q=  -0.25000000  0.24056261 -0.18795412
  reading force constants from file BN.dyn41
  nqs=           12
 q=   0.08333333  0.43301270  0.00000000
 q=   0.33333333  0.28867514  0.00000000
 q=  -0.08333333  0.43301270  0.00000000
 q=   0.08333333 -0.43301270  0.00000000
 q=  -0.08333333 -0.43301270  0.00000000
 q=   0.41666667  0.14433757  0.00000000
 q=   0.41666667 -0.14433757  0.00000000
 q=  -0.33333333 -0.28867514  0.00000000
 q=  -0.41666667 -0.14433757  0.00000000
 q=   0.33333333 -0.28867514  0.00000000
 q=  -0.41666667  0.14433757  0.00000000
 q=  -0.33333333  0.28867514  0.00000000
  reading force constants from file BN.dyn42
  nqs=           24
 q=   0.08333333  0.43301270  0.06265137
 q=   0.08333333  0.43301270 -0.06265137
 q=   0.33333333  0.28867514 -0.06265137
 q=   0.33333333  0.28867514  0.06265137
 q=  -0.08333333  0.43301270  0.06265137
 q=   0.08333333 -0.43301270 -0.06265137
 q=  -0.08333333  0.43301270 -0.06265137
 q=  -0.08333333 -0.43301270 -0.06265137
 q=   0.41666667  0.14433757  0.06265137
 q=   0.41666667 -0.14433757  0.06265137
 q=  -0.33333333 -0.28867514  0.06265137
 q=  -0.41666667 -0.14433757  0.06265137
 q=  -0.08333333 -0.43301270  0.06265137
 q=   0.33333333 -0.28867514  0.06265137
 q=   0.08333333 -0.43301270  0.06265137
 q=  -0.41666667  0.14433757  0.06265137
 q=  -0.33333333  0.28867514  0.06265137
 q=   0.33333333 -0.28867514 -0.06265137
 q=   0.41666667  0.14433757 -0.06265137
 q=  -0.33333333  0.28867514 -0.06265137
 q=  -0.33333333 -0.28867514 -0.06265137
 q=   0.41666667 -0.14433757 -0.06265137
 q=  -0.41666667 -0.14433757 -0.06265137
 q=  -0.41666667  0.14433757 -0.06265137
  reading force constants from file BN.dyn43
  nqs=           24
 q=   0.08333333  0.43301270  0.12530275
 q=   0.08333333  0.43301270 -0.12530275
 q=   0.33333333  0.28867514 -0.12530275
 q=   0.33333333  0.28867514  0.12530275
 q=  -0.08333333  0.43301270  0.12530275
 q=   0.08333333 -0.43301270 -0.12530275
 q=  -0.08333333  0.43301270 -0.12530275
 q=  -0.08333333 -0.43301270 -0.12530275
 q=   0.41666667  0.14433757  0.12530275
 q=   0.41666667 -0.14433757  0.12530275
 q=  -0.33333333 -0.28867514  0.12530275
 q=  -0.41666667 -0.14433757  0.12530275
 q=  -0.08333333 -0.43301270  0.12530275
 q=   0.33333333 -0.28867514  0.12530275
 q=   0.08333333 -0.43301270  0.12530275
 q=  -0.41666667  0.14433757  0.12530275
 q=  -0.33333333  0.28867514  0.12530275
 q=   0.33333333 -0.28867514 -0.12530275
 q=   0.41666667  0.14433757 -0.12530275
 q=  -0.33333333  0.28867514 -0.12530275
 q=  -0.33333333 -0.28867514 -0.12530275
 q=   0.41666667 -0.14433757 -0.12530275
 q=  -0.41666667 -0.14433757 -0.12530275
 q=  -0.41666667  0.14433757 -0.12530275
  reading force constants from file BN.dyn44
  nqs=           12
 q=   0.08333333  0.43301270 -0.18795412
 q=   0.33333333  0.28867514  0.18795412
 q=  -0.08333333  0.43301270 -0.18795412
 q=   0.08333333 -0.43301270  0.18795412
 q=  -0.08333333 -0.43301270  0.18795412
 q=   0.41666667  0.14433757 -0.18795412
 q=   0.41666667 -0.14433757 -0.18795412
 q=  -0.33333333 -0.28867514 -0.18795412
 q=  -0.41666667 -0.14433757 -0.18795412
 q=   0.33333333 -0.28867514 -0.18795412
 q=  -0.41666667  0.14433757 -0.18795412
 q=  -0.33333333  0.28867514 -0.18795412
  reading force constants from file BN.dyn45
  nqs=           12
 q=   0.08333333  0.52923775  0.00000000
 q=   0.41666667  0.33678766  0.00000000
 q=  -0.08333333  0.52923775  0.00000000
 q=   0.08333333 -0.52923775  0.00000000
 q=  -0.08333333 -0.52923775  0.00000000
 q=   0.50000000  0.19245009  0.00000000
 q=   0.50000000 -0.19245009  0.00000000
 q=  -0.41666667 -0.33678766  0.00000000
 q=  -0.50000000 -0.19245009  0.00000000
 q=   0.41666667 -0.33678766  0.00000000
 q=  -0.50000000  0.19245009  0.00000000
 q=  -0.41666667  0.33678766  0.00000000
  reading force constants from file BN.dyn46
  nqs=           24
 q=   0.08333333  0.52923775  0.06265137
 q=   0.08333333  0.52923775 -0.06265137
 q=   0.41666667  0.33678766 -0.06265137
 q=   0.41666667  0.33678766  0.06265137
 q=  -0.08333333  0.52923775  0.06265137
 q=   0.08333333 -0.52923775 -0.06265137
 q=  -0.08333333  0.52923775 -0.06265137
 q=  -0.08333333 -0.52923775 -0.06265137
 q=   0.50000000  0.19245009  0.06265137
 q=   0.50000000 -0.19245009  0.06265137
 q=  -0.41666667 -0.33678766  0.06265137
 q=  -0.50000000 -0.19245009  0.06265137
 q=  -0.08333333 -0.52923775  0.06265137
 q=   0.41666667 -0.33678766  0.06265137
 q=   0.08333333 -0.52923775  0.06265137
 q=  -0.50000000  0.19245009  0.06265137
 q=  -0.41666667  0.33678766  0.06265137
 q=   0.41666667 -0.33678766 -0.06265137
 q=   0.50000000  0.19245009 -0.06265137
 q=  -0.41666667  0.33678766 -0.06265137
 q=  -0.41666667 -0.33678766 -0.06265137
 q=   0.50000000 -0.19245009 -0.06265137
 q=  -0.50000000 -0.19245009 -0.06265137
 q=  -0.50000000  0.19245009 -0.06265137
  reading force constants from file BN.dyn47
  nqs=           24
 q=   0.08333333  0.52923775  0.12530275
 q=   0.08333333  0.52923775 -0.12530275
 q=   0.41666667  0.33678766 -0.12530275
 q=   0.41666667  0.33678766  0.12530275
 q=  -0.08333333  0.52923775  0.12530275
 q=   0.08333333 -0.52923775 -0.12530275
 q=  -0.08333333  0.52923775 -0.12530275
 q=  -0.08333333 -0.52923775 -0.12530275
 q=   0.50000000  0.19245009  0.12530275
 q=   0.50000000 -0.19245009  0.12530275
 q=  -0.41666667 -0.33678766  0.12530275
 q=  -0.50000000 -0.19245009  0.12530275
 q=  -0.08333333 -0.52923775  0.12530275
 q=   0.41666667 -0.33678766  0.12530275
 q=   0.08333333 -0.52923775  0.12530275
 q=  -0.50000000  0.19245009  0.12530275
 q=  -0.41666667  0.33678766  0.12530275
 q=   0.41666667 -0.33678766 -0.12530275
 q=   0.50000000  0.19245009 -0.12530275
 q=  -0.41666667  0.33678766 -0.12530275
 q=  -0.41666667 -0.33678766 -0.12530275
 q=   0.50000000 -0.19245009 -0.12530275
 q=  -0.50000000 -0.19245009 -0.12530275
 q=  -0.50000000  0.19245009 -0.12530275
  reading force constants from file BN.dyn48
  nqs=           12
 q=   0.08333333  0.52923775 -0.18795412
 q=   0.41666667  0.33678766  0.18795412
 q=  -0.08333333  0.52923775 -0.18795412
 q=   0.08333333 -0.52923775  0.18795412
 q=  -0.08333333 -0.52923775  0.18795412
 q=   0.50000000  0.19245009 -0.18795412
 q=   0.50000000 -0.19245009 -0.18795412
 q=  -0.41666667 -0.33678766 -0.18795412
 q=  -0.50000000 -0.19245009 -0.18795412
 q=   0.41666667 -0.33678766 -0.18795412
 q=  -0.50000000  0.19245009 -0.18795412
 q=  -0.41666667  0.33678766 -0.18795412
  reading force constants from file BN.dyn49
  nqs=            6
 q=   0.16666667  0.28867514  0.00000000
 q=  -0.16666667  0.28867514  0.00000000
 q=   0.16666667 -0.28867514  0.00000000
 q=  -0.16666667 -0.28867514  0.00000000
 q=   0.33333333  0.00000000  0.00000000
 q=  -0.33333333  0.00000000  0.00000000
  reading force constants from file BN.dyn50
  nqs=           12
 q=   0.16666667  0.28867514  0.06265137
 q=   0.16666667  0.28867514 -0.06265137
 q=  -0.16666667  0.28867514  0.06265137
 q=   0.16666667 -0.28867514 -0.06265137
 q=  -0.16666667  0.28867514 -0.06265137
 q=  -0.16666667 -0.28867514 -0.06265137
 q=   0.33333333  0.00000000  0.06265137
 q=  -0.16666667 -0.28867514  0.06265137
 q=  -0.33333333  0.00000000  0.06265137
 q=   0.16666667 -0.28867514  0.06265137
 q=   0.33333333  0.00000000 -0.06265137
 q=  -0.33333333  0.00000000 -0.06265137
  reading force constants from file BN.dyn51
  nqs=           12
 q=   0.16666667  0.28867514  0.12530275
 q=   0.16666667  0.28867514 -0.12530275
 q=  -0.16666667  0.28867514  0.12530275
 q=   0.16666667 -0.28867514 -0.12530275
 q=  -0.16666667  0.28867514 -0.12530275
 q=  -0.16666667 -0.28867514 -0.12530275
 q=   0.33333333  0.00000000  0.12530275
 q=  -0.16666667 -0.28867514  0.12530275
 q=  -0.33333333  0.00000000  0.12530275
 q=   0.16666667 -0.28867514  0.12530275
 q=   0.33333333  0.00000000 -0.12530275
 q=  -0.33333333  0.00000000 -0.12530275
  reading force constants from file BN.dyn52
  nqs=            6
 q=   0.16666667  0.28867514 -0.18795412
 q=  -0.16666667  0.28867514 -0.18795412
 q=   0.16666667 -0.28867514  0.18795412
 q=  -0.16666667 -0.28867514  0.18795412
 q=   0.33333333  0.00000000 -0.18795412
 q=  -0.33333333  0.00000000 -0.18795412
  reading force constants from file BN.dyn53
  nqs=           12
 q=   0.16666667  0.38490018  0.00000000
 q=   0.25000000  0.33678766  0.00000000
 q=  -0.16666667  0.38490018  0.00000000
 q=   0.16666667 -0.38490018  0.00000000
 q=  -0.16666667 -0.38490018  0.00000000
 q=   0.41666667  0.04811252  0.00000000
 q=   0.41666667 -0.04811252  0.00000000
 q=  -0.25000000 -0.33678766  0.00000000
 q=  -0.41666667 -0.04811252  0.00000000
 q=   0.25000000 -0.33678766  0.00000000
 q=  -0.41666667  0.04811252  0.00000000
 q=  -0.25000000  0.33678766  0.00000000
  reading force constants from file BN.dyn54
  nqs=           24
 q=   0.16666667  0.38490018  0.06265137
 q=   0.16666667  0.38490018 -0.06265137
 q=   0.25000000  0.33678766 -0.06265137
 q=   0.25000000  0.33678766  0.06265137
 q=  -0.16666667  0.38490018  0.06265137
 q=   0.16666667 -0.38490018 -0.06265137
 q=  -0.16666667  0.38490018 -0.06265137
 q=  -0.16666667 -0.38490018 -0.06265137
 q=   0.41666667  0.04811252  0.06265137
 q=   0.41666667 -0.04811252  0.06265137
 q=  -0.25000000 -0.33678766  0.06265137
 q=  -0.41666667 -0.04811252  0.06265137
 q=  -0.16666667 -0.38490018  0.06265137
 q=   0.25000000 -0.33678766  0.06265137
 q=   0.16666667 -0.38490018  0.06265137
 q=  -0.41666667  0.04811252  0.06265137
 q=  -0.25000000  0.33678766  0.06265137
 q=   0.25000000 -0.33678766 -0.06265137
 q=   0.41666667  0.04811252 -0.06265137
 q=  -0.25000000  0.33678766 -0.06265137
 q=  -0.25000000 -0.33678766 -0.06265137
 q=   0.41666667 -0.04811252 -0.06265137
 q=  -0.41666667 -0.04811252 -0.06265137
 q=  -0.41666667  0.04811252 -0.06265137
  reading force constants from file BN.dyn55
  nqs=           24
 q=   0.16666667  0.38490018  0.12530275
 q=   0.16666667  0.38490018 -0.12530275
 q=   0.25000000  0.33678766 -0.12530275
 q=   0.25000000  0.33678766  0.12530275
 q=  -0.16666667  0.38490018  0.12530275
 q=   0.16666667 -0.38490018 -0.12530275
 q=  -0.16666667  0.38490018 -0.12530275
 q=  -0.16666667 -0.38490018 -0.12530275
 q=   0.41666667  0.04811252  0.12530275
 q=   0.41666667 -0.04811252  0.12530275
 q=  -0.25000000 -0.33678766  0.12530275
 q=  -0.41666667 -0.04811252  0.12530275
 q=  -0.16666667 -0.38490018  0.12530275
 q=   0.25000000 -0.33678766  0.12530275
 q=   0.16666667 -0.38490018  0.12530275
 q=  -0.41666667  0.04811252  0.12530275
 q=  -0.25000000  0.33678766  0.12530275
 q=   0.25000000 -0.33678766 -0.12530275
 q=   0.41666667  0.04811252 -0.12530275
 q=  -0.25000000  0.33678766 -0.12530275
 q=  -0.25000000 -0.33678766 -0.12530275
 q=   0.41666667 -0.04811252 -0.12530275
 q=  -0.41666667 -0.04811252 -0.12530275
 q=  -0.41666667  0.04811252 -0.12530275
  reading force constants from file BN.dyn56
  nqs=           12
 q=   0.16666667  0.38490018 -0.18795412
 q=   0.25000000  0.33678766  0.18795412
 q=  -0.16666667  0.38490018 -0.18795412
 q=   0.16666667 -0.38490018  0.18795412
 q=  -0.16666667 -0.38490018  0.18795412
 q=   0.41666667  0.04811252 -0.18795412
 q=   0.41666667 -0.04811252 -0.18795412
 q=  -0.25000000 -0.33678766 -0.18795412
 q=  -0.41666667 -0.04811252 -0.18795412
 q=   0.25000000 -0.33678766 -0.18795412
 q=  -0.41666667  0.04811252 -0.18795412
 q=  -0.25000000  0.33678766 -0.18795412
  reading force constants from file BN.dyn57
  nqs=           12
 q=   0.16666667  0.48112522  0.00000000
 q=   0.33333333  0.38490018  0.00000000
 q=  -0.16666667  0.48112522  0.00000000
 q=   0.16666667 -0.48112522  0.00000000
 q=  -0.16666667 -0.48112522  0.00000000
 q=   0.50000000  0.09622504  0.00000000
 q=   0.50000000 -0.09622504  0.00000000
 q=  -0.33333333 -0.38490018  0.00000000
 q=  -0.50000000 -0.09622504  0.00000000
 q=   0.33333333 -0.38490018  0.00000000
 q=  -0.50000000  0.09622504  0.00000000
 q=  -0.33333333  0.38490018  0.00000000
  reading force constants from file BN.dyn58
  nqs=           24
 q=   0.16666667  0.48112522  0.06265137
 q=   0.16666667  0.48112522 -0.06265137
 q=   0.33333333  0.38490018 -0.06265137
 q=   0.33333333  0.38490018  0.06265137
 q=  -0.16666667  0.48112522  0.06265137
 q=   0.16666667 -0.48112522 -0.06265137
 q=  -0.16666667  0.48112522 -0.06265137
 q=  -0.16666667 -0.48112522 -0.06265137
 q=   0.50000000  0.09622504  0.06265137
 q=   0.50000000 -0.09622504  0.06265137
 q=  -0.33333333 -0.38490018  0.06265137
 q=  -0.50000000 -0.09622504  0.06265137
 q=  -0.16666667 -0.48112522  0.06265137
 q=   0.33333333 -0.38490018  0.06265137
 q=   0.16666667 -0.48112522  0.06265137
 q=  -0.50000000  0.09622504  0.06265137
 q=  -0.33333333  0.38490018  0.06265137
 q=   0.33333333 -0.38490018 -0.06265137
 q=   0.50000000  0.09622504 -0.06265137
 q=  -0.33333333  0.38490018 -0.06265137
 q=  -0.33333333 -0.38490018 -0.06265137
 q=   0.50000000 -0.09622504 -0.06265137
 q=  -0.50000000 -0.09622504 -0.06265137
 q=  -0.50000000  0.09622504 -0.06265137
  reading force constants from file BN.dyn59
  nqs=           24
 q=   0.16666667  0.48112522  0.12530275
 q=   0.16666667  0.48112522 -0.12530275
 q=   0.33333333  0.38490018 -0.12530275
 q=   0.33333333  0.38490018  0.12530275
 q=  -0.16666667  0.48112522  0.12530275
 q=   0.16666667 -0.48112522 -0.12530275
 q=  -0.16666667  0.48112522 -0.12530275
 q=  -0.16666667 -0.48112522 -0.12530275
 q=   0.50000000  0.09622504  0.12530275
 q=   0.50000000 -0.09622504  0.12530275
 q=  -0.33333333 -0.38490018  0.12530275
 q=  -0.50000000 -0.09622504  0.12530275
 q=  -0.16666667 -0.48112522  0.12530275
 q=   0.33333333 -0.38490018  0.12530275
 q=   0.16666667 -0.48112522  0.12530275
 q=  -0.50000000  0.09622504  0.12530275
 q=  -0.33333333  0.38490018  0.12530275
 q=   0.33333333 -0.38490018 -0.12530275
 q=   0.50000000  0.09622504 -0.12530275
 q=  -0.33333333  0.38490018 -0.12530275
 q=  -0.33333333 -0.38490018 -0.12530275
 q=   0.50000000 -0.09622504 -0.12530275
 q=  -0.50000000 -0.09622504 -0.12530275
 q=  -0.50000000  0.09622504 -0.12530275
  reading force constants from file BN.dyn60
  nqs=           12
 q=   0.16666667  0.48112522 -0.18795412
 q=   0.33333333  0.38490018  0.18795412
 q=  -0.16666667  0.48112522 -0.18795412
 q=   0.16666667 -0.48112522  0.18795412
 q=  -0.16666667 -0.48112522  0.18795412
 q=   0.50000000  0.09622504 -0.18795412
 q=   0.50000000 -0.09622504 -0.18795412
 q=  -0.33333333 -0.38490018 -0.18795412
 q=  -0.50000000 -0.09622504 -0.18795412
 q=   0.33333333 -0.38490018 -0.18795412
 q=  -0.50000000  0.09622504 -0.18795412
 q=  -0.33333333  0.38490018 -0.18795412
  reading force constants from file BN.dyn61
  nqs=            6
 q=   0.16666667  0.57735027  0.00000000
 q=  -0.16666667  0.57735027  0.00000000
 q=   0.41666667  0.43301270  0.00000000
 q=   0.58333333  0.14433757  0.00000000
 q=   0.58333333 -0.14433757  0.00000000
 q=   0.41666667 -0.43301270  0.00000000
  reading force constants from file BN.dyn62
  nqs=           12
 q=   0.16666667  0.57735027  0.06265137
 q=   0.16666667 -0.57735027 -0.06265137
 q=  -0.16666667  0.57735027  0.06265137
 q=   0.41666667  0.43301270 -0.06265137
 q=  -0.16666667  0.57735027 -0.06265137
 q=   0.58333333  0.14433757  0.06265137
 q=   0.58333333 -0.14433757  0.06265137
 q=  -0.58333333 -0.14433757  0.06265137
 q=   0.41666667 -0.43301270  0.06265137
 q=   0.41666667 -0.43301270 -0.06265137
 q=   0.58333333  0.14433757 -0.06265137
 q=  -0.41666667  0.43301270 -0.06265137
  reading force constants from file BN.dyn63
  nqs=           12
 q=   0.16666667  0.57735027  0.12530275
 q=   0.16666667 -0.57735027 -0.12530275
 q=  -0.16666667  0.57735027  0.12530275
 q=   0.41666667  0.43301270 -0.12530275
 q=  -0.16666667  0.57735027 -0.12530275
 q=   0.58333333  0.14433757  0.12530275
 q=   0.58333333 -0.14433757  0.12530275
 q=  -0.58333333 -0.14433757  0.12530275
 q=   0.41666667 -0.43301270  0.12530275
 q=   0.41666667 -0.43301270 -0.12530275
 q=   0.58333333  0.14433757 -0.12530275
 q=  -0.41666667  0.43301270 -0.12530275
  reading force constants from file BN.dyn64
  nqs=            6
 q=   0.16666667  0.57735027 -0.18795412
 q=  -0.16666667  0.57735027 -0.18795412
 q=   0.41666667  0.43301270  0.18795412
 q=   0.58333333  0.14433757 -0.18795412
 q=   0.58333333 -0.14433757 -0.18795412
 q=   0.41666667 -0.43301270 -0.18795412
  reading force constants from file BN.dyn65
  nqs=            6
 q=   0.25000000  0.43301270  0.00000000
 q=  -0.25000000  0.43301270  0.00000000
 q=   0.25000000 -0.43301270  0.00000000
 q=  -0.25000000 -0.43301270  0.00000000
 q=   0.50000000  0.00000000  0.00000000
 q=  -0.50000000  0.00000000  0.00000000
  reading force constants from file BN.dyn66
  nqs=           12
 q=   0.25000000  0.43301270  0.06265137
 q=   0.25000000  0.43301270 -0.06265137
 q=  -0.25000000  0.43301270  0.06265137
 q=   0.25000000 -0.43301270 -0.06265137
 q=  -0.25000000  0.43301270 -0.06265137
 q=  -0.25000000 -0.43301270 -0.06265137
 q=   0.50000000  0.00000000  0.06265137
 q=  -0.25000000 -0.43301270  0.06265137
 q=  -0.50000000  0.00000000  0.06265137
 q=   0.25000000 -0.43301270  0.06265137
 q=   0.50000000  0.00000000 -0.06265137
 q=  -0.50000000  0.00000000 -0.06265137
  reading force constants from file BN.dyn67
  nqs=           12
 q=   0.25000000  0.43301270  0.12530275
 q=   0.25000000  0.43301270 -0.12530275
 q=  -0.25000000  0.43301270  0.12530275
 q=   0.25000000 -0.43301270 -0.12530275
 q=  -0.25000000  0.43301270 -0.12530275
 q=  -0.25000000 -0.43301270 -0.12530275
 q=   0.50000000  0.00000000  0.12530275
 q=  -0.25000000 -0.43301270  0.12530275
 q=  -0.50000000  0.00000000  0.12530275
 q=   0.25000000 -0.43301270  0.12530275
 q=   0.50000000  0.00000000 -0.12530275
 q=  -0.50000000  0.00000000 -0.12530275
  reading force constants from file BN.dyn68
  nqs=            6
 q=   0.25000000  0.43301270 -0.18795412
 q=  -0.25000000  0.43301270 -0.18795412
 q=   0.25000000 -0.43301270  0.18795412
 q=  -0.25000000 -0.43301270  0.18795412
 q=   0.50000000  0.00000000 -0.18795412
 q=  -0.50000000  0.00000000 -0.18795412
  reading force constants from file BN.dyn69
  nqs=           12
 q=   0.25000000  0.52923775  0.00000000
 q=   0.33333333  0.48112522  0.00000000
 q=  -0.25000000  0.52923775  0.00000000
 q=   0.25000000 -0.52923775  0.00000000
 q=  -0.25000000 -0.52923775  0.00000000
 q=   0.58333333  0.04811252  0.00000000
 q=   0.58333333 -0.04811252  0.00000000
 q=  -0.33333333 -0.48112522  0.00000000
 q=  -0.58333333 -0.04811252  0.00000000
 q=   0.33333333 -0.48112522  0.00000000
 q=  -0.58333333  0.04811252  0.00000000
 q=  -0.33333333  0.48112522  0.00000000
  reading force constants from file BN.dyn70
  nqs=           24
 q=   0.25000000  0.52923775  0.06265137
 q=   0.25000000  0.52923775 -0.06265137
 q=   0.33333333  0.48112522 -0.06265137
 q=   0.33333333  0.48112522  0.06265137
 q=  -0.25000000  0.52923775  0.06265137
 q=   0.25000000 -0.52923775 -0.06265137
 q=  -0.25000000  0.52923775 -0.06265137
 q=  -0.25000000 -0.52923775 -0.06265137
 q=   0.58333333  0.04811252  0.06265137
 q=   0.58333333 -0.04811252  0.06265137
 q=  -0.33333333 -0.48112522  0.06265137
 q=  -0.58333333 -0.04811252  0.06265137
 q=  -0.25000000 -0.52923775  0.06265137
 q=   0.33333333 -0.48112522  0.06265137
 q=   0.25000000 -0.52923775  0.06265137
 q=  -0.58333333  0.04811252  0.06265137
 q=  -0.33333333  0.48112522  0.06265137
 q=   0.33333333 -0.48112522 -0.06265137
 q=   0.58333333  0.04811252 -0.06265137
 q=  -0.33333333  0.48112522 -0.06265137
 q=  -0.33333333 -0.48112522 -0.06265137
 q=   0.58333333 -0.04811252 -0.06265137
 q=  -0.58333333 -0.04811252 -0.06265137
 q=  -0.58333333  0.04811252 -0.06265137
  reading force constants from file BN.dyn71
  nqs=           24
 q=   0.25000000  0.52923775  0.12530275
 q=   0.25000000  0.52923775 -0.12530275
 q=   0.33333333  0.48112522 -0.12530275
 q=   0.33333333  0.48112522  0.12530275
 q=  -0.25000000  0.52923775  0.12530275
 q=   0.25000000 -0.52923775 -0.12530275
 q=  -0.25000000  0.52923775 -0.12530275
 q=  -0.25000000 -0.52923775 -0.12530275
 q=   0.58333333  0.04811252  0.12530275
 q=   0.58333333 -0.04811252  0.12530275
 q=  -0.33333333 -0.48112522  0.12530275
 q=  -0.58333333 -0.04811252  0.12530275
 q=  -0.25000000 -0.52923775  0.12530275
 q=   0.33333333 -0.48112522  0.12530275
 q=   0.25000000 -0.52923775  0.12530275
 q=  -0.58333333  0.04811252  0.12530275
 q=  -0.33333333  0.48112522  0.12530275
 q=   0.33333333 -0.48112522 -0.12530275
 q=   0.58333333  0.04811252 -0.12530275
 q=  -0.33333333  0.48112522 -0.12530275
 q=  -0.33333333 -0.48112522 -0.12530275
 q=   0.58333333 -0.04811252 -0.12530275
 q=  -0.58333333 -0.04811252 -0.12530275
 q=  -0.58333333  0.04811252 -0.12530275
  reading force constants from file BN.dyn72
  nqs=           12
 q=   0.25000000  0.52923775 -0.18795412
 q=   0.33333333  0.48112522  0.18795412
 q=  -0.25000000  0.52923775 -0.18795412
 q=   0.25000000 -0.52923775  0.18795412
 q=  -0.25000000 -0.52923775  0.18795412
 q=   0.58333333  0.04811252 -0.18795412
 q=   0.58333333 -0.04811252 -0.18795412
 q=  -0.33333333 -0.48112522 -0.18795412
 q=  -0.58333333 -0.04811252 -0.18795412
 q=   0.33333333 -0.48112522 -0.18795412
 q=  -0.58333333  0.04811252 -0.18795412
 q=  -0.33333333  0.48112522 -0.18795412
  reading force constants from file BN.dyn73
  nqs=            2
 q=   0.33333333  0.57735027  0.00000000
 q=  -0.33333333 -0.57735027  0.00000000
  reading force constants from file BN.dyn74
  nqs=            4
 q=   0.33333333  0.57735027  0.06265137
 q=   0.33333333  0.57735027 -0.06265137
 q=  -0.33333333 -0.57735027  0.06265137
 q=  -0.33333333  0.57735027 -0.06265137
  reading force constants from file BN.dyn75
  nqs=            4
 q=   0.33333333  0.57735027  0.12530275
 q=   0.33333333  0.57735027 -0.12530275
 q=  -0.33333333 -0.57735027  0.12530275
 q=  -0.33333333  0.57735027 -0.12530275
  reading force constants from file BN.dyn76
  nqs=            2
 q=   0.33333333  0.57735027 -0.18795412
 q=  -0.33333333 -0.57735027 -0.18795412

      q-space grid ok, #points =  864

      fft-check warning: sum of imaginary terms = 3.278230E-07
 
     Q2R          :      0.50s CPU      2.37s WALL

 
   This run was terminated on:  10:19: 1  15Aug2021            

=------------------------------------------------------------------------------=
   JOB DONE.
=------------------------------------------------------------------------------=
