
     Program PWSCF v.6.4.1 starts on  3Jul2020 at 17:23:13 

     This program is part of the open-source Quantum ESPRESSO suite
     for quantum simulation of materials; please cite
         "P. Giannozzi et al., J. Phys.:Condens. Matter 21 395502 (2009);
         "P. Giannozzi et al., J. Phys.:Condens. Matter 29 465901 (2017);
          URL http://www.quantum-espresso.org", 
     in publications or presentations arising from this work. More details at
     http://www.quantum-espresso.org/quote

     Parallel version (MPI), running on     6 processors

     MPI processes distributed on     1 nodes
     K-points division:     npool     =       6
     Waiting for input...
     Reading input from standard input
     Message from routine read_cards :
     DEPRECATED: no units specified in CELL_PARAMETERS card
Warning: card &IONS ignored
Warning: card / ignored
Warning: card &CELL ignored
Warning: card / ignored

     Current dimensions of program PWSCF are:
     Max number of different atomic species (ntypx) = 10
     Max number of k-points (npk) =  40000
     Max angular momentum in pseudopotentials (lmaxx) =  3

     Atomic positions and unit cell read from directory:
     ./BN.save/
 
     Message from routine readpp:
     file ./BN.save/b.cpi.UPF not found
     Message from routine readpp:
     file ./BN.save/n.cpi.UPF not found
               file b.cpi.UPF: wavefunction(s)  3d 4f renormalized
               file n.cpi.UPF: wavefunction(s)  3d 4f renormalized

     Subspace diagonalization in iterative solution of the eigenvalue problem:
     a serial algorithm will be used

     Message from routine setup:
     DEPRECATED: symmetry with ibrav=0, use correct ibrav instead
 
     G-vector sticks info
     --------------------
     sticks:   dense  smooth     PW     G-vecs:    dense   smooth      PW
     Sum         433     433    187                58197    58197   16109
 


     bravais-lattice index     =            0
     lattice parameter (alat)  =       4.7319  a.u.
     unit-cell volume          =     734.0406 (a.u.)^3
     number of atoms/cell      =            2
     number of atomic types    =            2
     number of electrons       =         8.00
     number of Kohn-Sham states=            4
     kinetic-energy cutoff     =      70.0000  Ry
     charge density cutoff     =     280.0000  Ry
     Exchange-correlation      = SLA  PZ   NOGX NOGC ( 1  1  0  0 0 0)

     celldm(1)=   4.731874  celldm(2)=   0.000000  celldm(3)=   0.000000
     celldm(4)=   0.000000  celldm(5)=   0.000000  celldm(6)=   0.000000

     crystal axes: (cart. coord. in units of alat)
               a(1) = (   1.000000   0.000000   0.000000 )  
               a(2) = (  -0.500000   0.866025   0.000000 )  
               a(3) = (   0.000000   0.000000   8.000000 )  

     reciprocal axes: (cart. coord. in units 2 pi/alat)
               b(1) = (  1.000000  0.577350  0.000000 )  
               b(2) = (  0.000000  1.154701  0.000000 )  
               b(3) = (  0.000000  0.000000  0.125000 )  


     PseudoPot. # 1 for B  read from file:
     ./b.cpi.UPF
     MD5 check sum: aadced629ac320abbac2d4088521b25e
     Pseudo is Norm-conserving + core correction, Zval =  3.0
     Generated by new atomic code, or converted to UPF format
     Using radial grid of  453 points,  3 beta functions with: 
                l(1) =   0
                l(2) =   1
                l(3) =   2

     PseudoPot. # 2 for N  read from file:
     ./n.cpi.UPF
     MD5 check sum: ff6dad263d6aed986b71703111ab3f52
     Pseudo is Norm-conserving, Zval =  5.0
     Generated by new atomic code, or converted to UPF format
     Using radial grid of  467 points,  3 beta functions with: 
                l(1) =   0
                l(2) =   1
                l(3) =   2

     atomic species   valence    mass     pseudopotential
        B              3.00    10.81100     B ( 1.00)
        N              5.00    14.00700     N ( 1.00)

     12 Sym. Ops. (no inversion) found


                                    s                        frac. trans.

      isym =  1     identity                                     

 cryst.   s( 1) = (     1          0          0      )
                  (     0          1          0      )
                  (     0          0          1      )

 cart.    s( 1) = (  1.0000000  0.0000000  0.0000000 )
                  (  0.0000000  1.0000000  0.0000000 )
                  (  0.0000000  0.0000000  1.0000000 )


      isym =  2     180 deg rotation - cart. axis [0,1,0]        

 cryst.   s( 2) = (    -1          0          0      )
                  (     1          1          0      )
                  (     0          0         -1      )

 cart.    s( 2) = ( -1.0000000  0.0000000  0.0000000 )
                  (  0.0000000  1.0000000  0.0000000 )
                  (  0.0000000  0.0000000 -1.0000000 )


      isym =  3     120 deg rotation - cryst. axis [0,0,1]       

 cryst.   s( 3) = (     0          1          0      )
                  (    -1         -1          0      )
                  (     0          0          1      )

 cart.    s( 3) = ( -0.5000000 -0.8660254  0.0000000 )
                  (  0.8660254 -0.5000000  0.0000000 )
                  (  0.0000000  0.0000000  1.0000000 )


      isym =  4     120 deg rotation - cryst. axis [0,0,-1]      

 cryst.   s( 4) = (    -1         -1          0      )
                  (     1          0          0      )
                  (     0          0          1      )

 cart.    s( 4) = ( -0.5000000  0.8660254  0.0000000 )
                  ( -0.8660254 -0.5000000  0.0000000 )
                  (  0.0000000  0.0000000  1.0000000 )


      isym =  5     180 deg rotation - cryst. axis [1,-1,0]      

 cryst.   s( 5) = (     0         -1          0      )
                  (    -1          0          0      )
                  (     0          0         -1      )

 cart.    s( 5) = (  0.5000000 -0.8660254  0.0000000 )
                  ( -0.8660254 -0.5000000  0.0000000 )
                  (  0.0000000  0.0000000 -1.0000000 )


      isym =  6     180 deg rotation - cryst. axis [2,1,0]       

 cryst.   s( 6) = (     1          1          0      )
                  (     0         -1          0      )
                  (     0          0         -1      )

 cart.    s( 6) = (  0.5000000  0.8660254  0.0000000 )
                  (  0.8660254 -0.5000000  0.0000000 )
                  (  0.0000000  0.0000000 -1.0000000 )


      isym =  7     inv. 180 deg rotation - cart. axis [0,0,1]   

 cryst.   s( 7) = (     1          0          0      )
                  (     0          1          0      )
                  (     0          0         -1      )

 cart.    s( 7) = (  1.0000000  0.0000000  0.0000000 )
                  (  0.0000000  1.0000000  0.0000000 )
                  (  0.0000000  0.0000000 -1.0000000 )


      isym =  8     inv. 180 deg rotation - cart. axis [1,0,0]   

 cryst.   s( 8) = (    -1          0          0      )
                  (     1          1          0      )
                  (     0          0          1      )

 cart.    s( 8) = ( -1.0000000  0.0000000  0.0000000 )
                  (  0.0000000  1.0000000  0.0000000 )
                  (  0.0000000  0.0000000  1.0000000 )


      isym =  9     inv.  60 deg rotation - cryst. axis [0,0,1]  

 cryst.   s( 9) = (    -1         -1          0      )
                  (     1          0          0      )
                  (     0          0         -1      )

 cart.    s( 9) = ( -0.5000000  0.8660254  0.0000000 )
                  ( -0.8660254 -0.5000000  0.0000000 )
                  (  0.0000000  0.0000000 -1.0000000 )


      isym = 10     inv.  60 deg rotation - cryst. axis [0,0,-1] 

 cryst.   s(10) = (     0          1          0      )
                  (    -1         -1          0      )
                  (     0          0         -1      )

 cart.    s(10) = ( -0.5000000 -0.8660254  0.0000000 )
                  (  0.8660254 -0.5000000  0.0000000 )
                  (  0.0000000  0.0000000 -1.0000000 )


      isym = 11     inv. 180 deg rotation - cryst. axis [0,1,0]  

 cryst.   s(11) = (     1          1          0      )
                  (     0         -1          0      )
                  (     0          0          1      )

 cart.    s(11) = (  0.5000000  0.8660254  0.0000000 )
                  (  0.8660254 -0.5000000  0.0000000 )
                  (  0.0000000  0.0000000  1.0000000 )


      isym = 12     inv. 180 deg rotation - cryst. axis [1,1,0]  

 cryst.   s(12) = (     0         -1          0      )
                  (    -1          0          0      )
                  (     0          0          1      )

 cart.    s(12) = (  0.5000000 -0.8660254  0.0000000 )
                  ( -0.8660254 -0.5000000  0.0000000 )
                  (  0.0000000  0.0000000  1.0000000 )


   Cartesian axes

     site n.     atom                  positions (alat units)
         1           B   tau(   1) = (  -0.0000000   0.5773503   4.0000000  )
         2           N   tau(   2) = (   0.5000000   0.2886751   4.0000000  )

   Crystallographic axes

     site n.     atom                  positions (cryst. coord.)
         1           B   tau(   1) = (  0.3333333  0.6666667  0.5000000  )
         2           N   tau(   2) = (  0.6666667  0.3333333  0.5000000  )

     number of k points=  2232
                       cart. coord. in units 2pi/alat
        k(    1) = (   0.0421040   0.0724213   0.0000000), wk =   0.0009259
        k(    2) = (   0.9587707   0.6497716   0.0000000), wk =   0.0009259
        k(    3) = (   0.9171040   0.5776028   0.0000000), wk =   0.0009259
        k(    4) = (   0.0421040   0.1686463   0.0000000), wk =   0.0009259
        k(    5) = (   0.9587707   0.7459966   0.0000000), wk =   0.0009259
        k(    6) = (   0.8337707   0.5294903   0.0000000), wk =   0.0009259
        k(    7) = (   0.0421040   0.2648714   0.0000000), wk =   0.0009259
        k(    8) = (   0.9587707   0.8422217   0.0000000), wk =   0.0009259
        k(    9) = (   0.7504374   0.4813777   0.0000000), wk =   0.0009259
        k(   10) = (   0.0421040   0.3610964   0.0000000), wk =   0.0009259
        k(   11) = (   0.9587707   0.9384467   0.0000000), wk =   0.0009259
        k(   12) = (   0.6671040   0.4332652   0.0000000), wk =   0.0009259
        k(   13) = (   0.0421040   0.4573215   0.0000000), wk =   0.0009259
        k(   14) = (   0.9587707   1.0346717   0.0000000), wk =   0.0009259
        k(   15) = (   0.5837707   0.3851527   0.0000000), wk =   0.0009259
        k(   16) = (   0.0421040   0.5535465   0.0000000), wk =   0.0009259
        k(   17) = (   0.9587707   1.1308968   0.0000000), wk =   0.0009259
        k(   18) = (   0.5004374   0.3370402   0.0000000), wk =   0.0009259
        k(   19) = (   0.0421040   0.6497716   0.0000000), wk =   0.0009259
        k(   20) = (   0.9587707   1.2271218   0.0000000), wk =   0.0009259
        k(   21) = (   0.4171040   0.2889277   0.0000000), wk =   0.0009259
        k(   22) = (   0.0421040   0.7459966   0.0000000), wk =   0.0009259
        k(   23) = (   0.9587707   1.3233469   0.0000000), wk =   0.0009259
        k(   24) = (   0.3337707   0.2408151   0.0000000), wk =   0.0009259
        k(   25) = (   0.0421040   0.8422217   0.0000000), wk =   0.0009259
        k(   26) = (   0.9587707   1.4195719   0.0000000), wk =   0.0009259
        k(   27) = (   0.2504374   0.1927026   0.0000000), wk =   0.0009259
        k(   28) = (   0.0421040   0.9384467   0.0000000), wk =   0.0009259
        k(   29) = (   0.9587707   1.5157970   0.0000000), wk =   0.0009259
        k(   30) = (   0.1671040   0.1445901   0.0000000), wk =   0.0009259
        k(   31) = (   0.0421040   1.0346717   0.0000000), wk =   0.0009259
        k(   32) = (   0.9587707   1.6120220   0.0000000), wk =   0.0009259
        k(   33) = (   0.0837707   0.0964776   0.0000000), wk =   0.0009259
        k(   34) = (   0.0421040   1.1308968   0.0000000), wk =   0.0009259
        k(   35) = (   0.9587707   0.5535465   0.0000000), wk =   0.0004630
        k(   36) = (   0.1254374   0.1205338   0.0000000), wk =   0.0009259
        k(   37) = (   0.8754374   0.6978841   0.0000000), wk =   0.0009259
        k(   38) = (   0.8337707   0.6257153   0.0000000), wk =   0.0009259
        k(   39) = (   0.1254374   0.2167589   0.0000000), wk =   0.0009259
        k(   40) = (   0.8754374   0.7941091   0.0000000), wk =   0.0009259
        k(   41) = (   0.7504374   0.5776028   0.0000000), wk =   0.0009259
        k(   42) = (   0.1254374   0.3129839   0.0000000), wk =   0.0009259
        k(   43) = (   0.8754374   0.8903342   0.0000000), wk =   0.0009259
        k(   44) = (   0.6671040   0.5294903   0.0000000), wk =   0.0009259
        k(   45) = (   0.1254374   0.4092090   0.0000000), wk =   0.0009259
        k(   46) = (   0.8754374   0.9865592   0.0000000), wk =   0.0009259
        k(   47) = (   0.5837707   0.4813777   0.0000000), wk =   0.0009259
        k(   48) = (   0.1254374   0.5054340   0.0000000), wk =   0.0009259
        k(   49) = (   0.8754374   1.0827843   0.0000000), wk =   0.0009259
        k(   50) = (   0.5004374   0.4332652   0.0000000), wk =   0.0009259
        k(   51) = (   0.1254374   0.6016590   0.0000000), wk =   0.0009259
        k(   52) = (   0.8754374   1.1790093   0.0000000), wk =   0.0009259
        k(   53) = (   0.4171040   0.3851527   0.0000000), wk =   0.0009259
        k(   54) = (   0.1254374   0.6978841   0.0000000), wk =   0.0009259
        k(   55) = (   0.8754374   1.2752344   0.0000000), wk =   0.0009259
        k(   56) = (   0.3337707   0.3370402   0.0000000), wk =   0.0009259
        k(   57) = (   0.1254374   0.7941091   0.0000000), wk =   0.0009259
        k(   58) = (   0.8754374   1.3714594   0.0000000), wk =   0.0009259
        k(   59) = (   0.2504374   0.2889277   0.0000000), wk =   0.0009259
        k(   60) = (   0.1254374   0.8903342   0.0000000), wk =   0.0009259
        k(   61) = (   0.8754374   1.4676845   0.0000000), wk =   0.0009259
        k(   62) = (   0.1671040   0.2408151   0.0000000), wk =   0.0009259
        k(   63) = (   0.1254374   0.9865592   0.0000000), wk =   0.0009259
        k(   64) = (   0.8754374   1.5639095   0.0000000), wk =   0.0009259
        k(   65) = (   0.0837707   0.1927026   0.0000000), wk =   0.0009259
        k(   66) = (   0.1254374   1.0827843   0.0000000), wk =   0.0009259
        k(   67) = (   0.8754374   0.5054340   0.0000000), wk =   0.0004630
        k(   68) = (   0.2087707   0.1686463   0.0000000), wk =   0.0009259
        k(   69) = (   0.7921040   0.7459966   0.0000000), wk =   0.0009259
        k(   70) = (   0.7504374   0.6738278   0.0000000), wk =   0.0009259
        k(   71) = (   0.2087707   0.2648714   0.0000000), wk =   0.0009259
        k(   72) = (   0.7921040   0.8422217   0.0000000), wk =   0.0009259
        k(   73) = (   0.6671040   0.6257153   0.0000000), wk =   0.0009259
        k(   74) = (   0.2087707   0.3610964   0.0000000), wk =   0.0009259
        k(   75) = (   0.7921040   0.9384467   0.0000000), wk =   0.0009259
        k(   76) = (   0.5837707   0.5776028   0.0000000), wk =   0.0009259
        k(   77) = (   0.2087707   0.4573215   0.0000000), wk =   0.0009259
        k(   78) = (   0.7921040   1.0346717   0.0000000), wk =   0.0009259
        k(   79) = (   0.5004374   0.5294903   0.0000000), wk =   0.0009259
        k(   80) = (   0.2087707   0.5535465   0.0000000), wk =   0.0009259
        k(   81) = (   0.7921040   1.1308968   0.0000000), wk =   0.0009259
        k(   82) = (   0.4171040   0.4813777   0.0000000), wk =   0.0009259
        k(   83) = (   0.2087707   0.6497716   0.0000000), wk =   0.0009259
        k(   84) = (   0.7921040   1.2271218   0.0000000), wk =   0.0009259
        k(   85) = (   0.3337707   0.4332652   0.0000000), wk =   0.0009259
        k(   86) = (   0.2087707   0.7459966   0.0000000), wk =   0.0009259
        k(   87) = (   0.7921040   1.3233469   0.0000000), wk =   0.0009259
        k(   88) = (   0.2504374   0.3851527   0.0000000), wk =   0.0009259
        k(   89) = (   0.2087707   0.8422217   0.0000000), wk =   0.0009259
        k(   90) = (   0.7921040   1.4195719   0.0000000), wk =   0.0009259
        k(   91) = (   0.1671040   0.3370402   0.0000000), wk =   0.0009259
        k(   92) = (   0.2087707   0.9384467   0.0000000), wk =   0.0009259
        k(   93) = (   0.7921040   1.5157970   0.0000000), wk =   0.0009259
        k(   94) = (   0.0837707   0.2889277   0.0000000), wk =   0.0009259
        k(   95) = (   0.2087707   1.0346717   0.0000000), wk =   0.0009259
        k(   96) = (   0.7921040   0.4573215   0.0000000), wk =   0.0004630
        k(   97) = (   0.2921040   0.2167589   0.0000000), wk =   0.0009259
        k(   98) = (   0.7087707   0.7941091   0.0000000), wk =   0.0009259
        k(   99) = (   0.6671040   0.7219404   0.0000000), wk =   0.0009259
        k(  100) = (   0.2921040   0.3129839   0.0000000), wk =   0.0009259
        k(  101) = (   0.7087707   0.8903342   0.0000000), wk =   0.0009259
        k(  102) = (   0.5837707   0.6738278   0.0000000), wk =   0.0009259
        k(  103) = (   0.2921040   0.4092090   0.0000000), wk =   0.0009259
        k(  104) = (   0.7087707   0.9865592   0.0000000), wk =   0.0009259
        k(  105) = (   0.5004374   0.6257153   0.0000000), wk =   0.0009259
        k(  106) = (   0.2921040   0.5054340   0.0000000), wk =   0.0009259
        k(  107) = (   0.7087707   1.0827843   0.0000000), wk =   0.0009259
        k(  108) = (   0.4171040   0.5776028   0.0000000), wk =   0.0009259
        k(  109) = (   0.2921040   0.6016590   0.0000000), wk =   0.0009259
        k(  110) = (   0.7087707   1.1790093   0.0000000), wk =   0.0009259
        k(  111) = (   0.3337707   0.5294903   0.0000000), wk =   0.0009259
        k(  112) = (   0.2921040   0.6978841   0.0000000), wk =   0.0009259
        k(  113) = (   0.7087707   1.2752344   0.0000000), wk =   0.0009259
        k(  114) = (   0.2504374   0.4813777   0.0000000), wk =   0.0009259
        k(  115) = (   0.2921040   0.7941091   0.0000000), wk =   0.0009259
        k(  116) = (   0.7087707   1.3714594   0.0000000), wk =   0.0009259
        k(  117) = (   0.1671040   0.4332652   0.0000000), wk =   0.0009259
        k(  118) = (   0.2921040   0.8903342   0.0000000), wk =   0.0009259
        k(  119) = (   0.7087707   1.4676845   0.0000000), wk =   0.0009259
        k(  120) = (   0.0837707   0.3851527   0.0000000), wk =   0.0009259
        k(  121) = (   0.2921040   0.9865592   0.0000000), wk =   0.0009259
        k(  122) = (   0.7087707   0.4092090   0.0000000), wk =   0.0004630
        k(  123) = (   0.3754374   0.2648714   0.0000000), wk =   0.0009259
        k(  124) = (   0.6254374   0.8422217   0.0000000), wk =   0.0009259
        k(  125) = (   0.5837707   0.7700529   0.0000000), wk =   0.0009259
        k(  126) = (   0.3754374   0.3610964   0.0000000), wk =   0.0009259
        k(  127) = (   0.6254374   0.9384467   0.0000000), wk =   0.0009259
        k(  128) = (   0.5004374   0.7219404   0.0000000), wk =   0.0009259
        k(  129) = (   0.3754374   0.4573215   0.0000000), wk =   0.0009259
        k(  130) = (   0.6254374   1.0346717   0.0000000), wk =   0.0009259
        k(  131) = (   0.4171040   0.6738278   0.0000000), wk =   0.0009259
        k(  132) = (   0.3754374   0.5535465   0.0000000), wk =   0.0009259
        k(  133) = (   0.6254374   1.1308968   0.0000000), wk =   0.0009259
        k(  134) = (   0.3337707   0.6257153   0.0000000), wk =   0.0009259
        k(  135) = (   0.3754374   0.6497716   0.0000000), wk =   0.0009259
        k(  136) = (   0.6254374   1.2271218   0.0000000), wk =   0.0009259
        k(  137) = (   0.2504374   0.5776028   0.0000000), wk =   0.0009259
        k(  138) = (   0.3754374   0.7459966   0.0000000), wk =   0.0009259
        k(  139) = (   0.6254374   1.3233469   0.0000000), wk =   0.0009259
        k(  140) = (   0.1671040   0.5294903   0.0000000), wk =   0.0009259
        k(  141) = (   0.3754374   0.8422217   0.0000000), wk =   0.0009259
        k(  142) = (   0.6254374   1.4195719   0.0000000), wk =   0.0009259
        k(  143) = (   0.0837707   0.4813777   0.0000000), wk =   0.0009259
        k(  144) = (   0.3754374   0.9384467   0.0000000), wk =   0.0009259
        k(  145) = (   0.6254374   0.3610964   0.0000000), wk =   0.0004630
        k(  146) = (   0.4587707   0.3129839   0.0000000), wk =   0.0009259
        k(  147) = (   0.5421040   0.8903342   0.0000000), wk =   0.0009259
        k(  148) = (   0.5004374   0.8181654   0.0000000), wk =   0.0009259
        k(  149) = (   0.4587707   0.4092090   0.0000000), wk =   0.0009259
        k(  150) = (   0.5421040   0.9865592   0.0000000), wk =   0.0009259
        k(  151) = (   0.4171040   0.7700529   0.0000000), wk =   0.0009259
        k(  152) = (   0.4587707   0.5054340   0.0000000), wk =   0.0009259
        k(  153) = (   0.5421040   1.0827843   0.0000000), wk =   0.0009259
        k(  154) = (   0.3337707   0.7219404   0.0000000), wk =   0.0009259
        k(  155) = (   0.4587707   0.6016590   0.0000000), wk =   0.0009259
        k(  156) = (   0.5421040   1.1790093   0.0000000), wk =   0.0009259
        k(  157) = (   0.2504374   0.6738278   0.0000000), wk =   0.0009259
        k(  158) = (   0.4587707   0.6978841   0.0000000), wk =   0.0009259
        k(  159) = (   0.5421040   1.2752344   0.0000000), wk =   0.0009259
        k(  160) = (   0.1671040   0.6257153   0.0000000), wk =   0.0009259
        k(  161) = (   0.4587707   0.7941091   0.0000000), wk =   0.0009259
        k(  162) = (   0.5421040   1.3714594   0.0000000), wk =   0.0009259
        k(  163) = (   0.0837707   0.5776028   0.0000000), wk =   0.0009259
        k(  164) = (   0.4587707   0.8903342   0.0000000), wk =   0.0009259
        k(  165) = (   0.5421040   0.3129839   0.0000000), wk =   0.0004630
        k(  166) = (   0.5421040   0.3610964   0.0000000), wk =   0.0009259
        k(  167) = (   0.4587707   0.9384467   0.0000000), wk =   0.0009259
        k(  168) = (   0.4171040   0.8662779   0.0000000), wk =   0.0009259
        k(  169) = (   0.5421040   0.4573215   0.0000000), wk =   0.0009259
        k(  170) = (   0.4587707   1.0346717   0.0000000), wk =   0.0009259
        k(  171) = (   0.3337707   0.8181654   0.0000000), wk =   0.0009259
        k(  172) = (   0.5421040   0.5535465   0.0000000), wk =   0.0009259
        k(  173) = (   0.4587707   1.1308968   0.0000000), wk =   0.0009259
        k(  174) = (   0.2504374   0.7700529   0.0000000), wk =   0.0009259
        k(  175) = (   0.5421040   0.6497716   0.0000000), wk =   0.0009259
        k(  176) = (   0.4587707   1.2271218   0.0000000), wk =   0.0009259
        k(  177) = (   0.1671040   0.7219404   0.0000000), wk =   0.0009259
        k(  178) = (   0.5421040   0.7459966   0.0000000), wk =   0.0009259
        k(  179) = (   0.4587707   1.3233469   0.0000000), wk =   0.0009259
        k(  180) = (   0.0837707   0.6738278   0.0000000), wk =   0.0009259
        k(  181) = (   0.5421040   0.8422217   0.0000000), wk =   0.0009259
        k(  182) = (   0.4587707   0.2648714   0.0000000), wk =   0.0004630
        k(  183) = (   0.6254374   0.4092090   0.0000000), wk =   0.0009259
        k(  184) = (   0.3754374   0.9865592   0.0000000), wk =   0.0009259
        k(  185) = (   0.3337707   0.9143904   0.0000000), wk =   0.0009259
        k(  186) = (   0.6254374   0.5054340   0.0000000), wk =   0.0009259
        k(  187) = (   0.3754374   1.0827843   0.0000000), wk =   0.0009259
        k(  188) = (   0.2504374   0.8662779   0.0000000), wk =   0.0009259
        k(  189) = (   0.6254374   0.6016590   0.0000000), wk =   0.0009259
        k(  190) = (   0.3754374   1.1790093   0.0000000), wk =   0.0009259
        k(  191) = (   0.1671040   0.8181654   0.0000000), wk =   0.0009259
        k(  192) = (   0.6254374   0.6978841   0.0000000), wk =   0.0009259
        k(  193) = (   0.3754374   1.2752344   0.0000000), wk =   0.0009259
        k(  194) = (   0.0837707   0.7700529   0.0000000), wk =   0.0009259
        k(  195) = (   0.6254374   0.7941091   0.0000000), wk =   0.0009259
        k(  196) = (   0.3754374   0.2167589   0.0000000), wk =   0.0004630
        k(  197) = (   0.7087707   0.4573215   0.0000000), wk =   0.0009259
        k(  198) = (   0.2921040   1.0346717   0.0000000), wk =   0.0009259
        k(  199) = (   0.2504374   0.9625030   0.0000000), wk =   0.0009259
        k(  200) = (   0.7087707   0.5535465   0.0000000), wk =   0.0009259
        k(  201) = (   0.2921040   1.1308968   0.0000000), wk =   0.0009259
        k(  202) = (   0.1671040   0.9143904   0.0000000), wk =   0.0009259
        k(  203) = (   0.7087707   0.6497716   0.0000000), wk =   0.0009259
        k(  204) = (   0.2921040   1.2271218   0.0000000), wk =   0.0009259
        k(  205) = (   0.0837707   0.8662779   0.0000000), wk =   0.0009259
        k(  206) = (   0.7087707   0.7459966   0.0000000), wk =   0.0009259
        k(  207) = (   0.2921040   0.1686463   0.0000000), wk =   0.0004630
        k(  208) = (   0.7921040   0.5054340   0.0000000), wk =   0.0009259
        k(  209) = (   0.2087707   1.0827843   0.0000000), wk =   0.0009259
        k(  210) = (   0.1671040   1.0106155   0.0000000), wk =   0.0009259
        k(  211) = (   0.7921040   0.6016590   0.0000000), wk =   0.0009259
        k(  212) = (   0.2087707   1.1790093   0.0000000), wk =   0.0009259
        k(  213) = (   0.0837707   0.9625030   0.0000000), wk =   0.0009259
        k(  214) = (   0.7921040   0.6978841   0.0000000), wk =   0.0009259
        k(  215) = (   0.2087707   0.1205338   0.0000000), wk =   0.0004630
        k(  216) = (   0.8754374   0.5535465   0.0000000), wk =   0.0009259
        k(  217) = (   0.1254374   1.1308968   0.0000000), wk =   0.0009259
        k(  218) = (   0.0837707   1.0587280   0.0000000), wk =   0.0009259
        k(  219) = (   0.8754374   0.6497716   0.0000000), wk =   0.0009259
        k(  220) = (   0.1254374   0.0724213   0.0000000), wk =   0.0004630
        k(  221) = (   0.9587707   0.6016590   0.0000000), wk =   0.0009259
        k(  222) = (   0.0421040   0.0243088   0.0000000), wk =   0.0004630
        k(  223) = (   0.0434162   0.0731789   0.0000000), wk =   0.0009259
        k(  224) = (   0.9600828   0.6505291   0.0000000), wk =   0.0009259
        k(  225) = (   0.9184162   0.5783603   0.0000000), wk =   0.0009259
        k(  226) = (   0.0434162   0.1694039   0.0000000), wk =   0.0009259
        k(  227) = (   0.9600828   0.7467542   0.0000000), wk =   0.0009259
        k(  228) = (   0.8350828   0.5302478   0.0000000), wk =   0.0009259
        k(  229) = (   0.0434162   0.2656289   0.0000000), wk =   0.0009259
        k(  230) = (   0.9600828   0.8429792   0.0000000), wk =   0.0009259
        k(  231) = (   0.7517495   0.4821353   0.0000000), wk =   0.0009259
        k(  232) = (   0.0434162   0.3618540   0.0000000), wk =   0.0009259
        k(  233) = (   0.9600828   0.9392043   0.0000000), wk =   0.0009259
        k(  234) = (   0.6684162   0.4340228   0.0000000), wk =   0.0009259
        k(  235) = (   0.0434162   0.4580790   0.0000000), wk =   0.0009259
        k(  236) = (   0.9600828   1.0354293   0.0000000), wk =   0.0009259
        k(  237) = (   0.5850828   0.3859102   0.0000000), wk =   0.0009259
        k(  238) = (   0.0434162   0.5543041   0.0000000), wk =   0.0009259
        k(  239) = (   0.9600828   1.1316543   0.0000000), wk =   0.0009259
        k(  240) = (   0.5017495   0.3377977   0.0000000), wk =   0.0009259
        k(  241) = (   0.0434162   0.6505291   0.0000000), wk =   0.0009259
        k(  242) = (   0.9600828   1.2278794   0.0000000), wk =   0.0009259
        k(  243) = (   0.4184162   0.2896852   0.0000000), wk =   0.0009259
        k(  244) = (   0.0434162   0.7467542   0.0000000), wk =   0.0009259
        k(  245) = (   0.9600828   1.3241044   0.0000000), wk =   0.0009259
        k(  246) = (   0.3350828   0.2415727   0.0000000), wk =   0.0009259
        k(  247) = (   0.0434162   0.8429792   0.0000000), wk =   0.0009259
        k(  248) = (   0.9600828   1.4203295   0.0000000), wk =   0.0009259
        k(  249) = (   0.2517495   0.1934602   0.0000000), wk =   0.0009259
        k(  250) = (   0.0434162   0.9392043   0.0000000), wk =   0.0009259
        k(  251) = (   0.9600828   1.5165545   0.0000000), wk =   0.0009259
        k(  252) = (   0.1684162   0.1453476   0.0000000), wk =   0.0009259
        k(  253) = (   0.0434162   1.0354293   0.0000000), wk =   0.0009259
        k(  254) = (   0.9600828   1.6127796   0.0000000), wk =   0.0009259
        k(  255) = (   0.0850828   0.0972351   0.0000000), wk =   0.0009259
        k(  256) = (   0.0434162   1.1316543   0.0000000), wk =   0.0009259
        k(  257) = (   0.9600828   0.5543041   0.0000000), wk =   0.0004630
        k(  258) = (   0.1267495   0.1212914   0.0000000), wk =   0.0009259
        k(  259) = (   0.8767495   0.6986416   0.0000000), wk =   0.0009259
        k(  260) = (   0.8350828   0.6264729   0.0000000), wk =   0.0009259
        k(  261) = (   0.1267495   0.2175164   0.0000000), wk =   0.0009259
        k(  262) = (   0.8767495   0.7948667   0.0000000), wk =   0.0009259
        k(  263) = (   0.7517495   0.5783603   0.0000000), wk =   0.0009259
        k(  264) = (   0.1267495   0.3137415   0.0000000), wk =   0.0009259
        k(  265) = (   0.8767495   0.8910917   0.0000000), wk =   0.0009259
        k(  266) = (   0.6684162   0.5302478   0.0000000), wk =   0.0009259
        k(  267) = (   0.1267495   0.4099665   0.0000000), wk =   0.0009259
        k(  268) = (   0.8767495   0.9873168   0.0000000), wk =   0.0009259
        k(  269) = (   0.5850828   0.4821353   0.0000000), wk =   0.0009259
        k(  270) = (   0.1267495   0.5061916   0.0000000), wk =   0.0009259
        k(  271) = (   0.8767495   1.0835418   0.0000000), wk =   0.0009259
        k(  272) = (   0.5017495   0.4340228   0.0000000), wk =   0.0009259
        k(  273) = (   0.1267495   0.6024166   0.0000000), wk =   0.0009259
        k(  274) = (   0.8767495   1.1797669   0.0000000), wk =   0.0009259
        k(  275) = (   0.4184162   0.3859102   0.0000000), wk =   0.0009259
        k(  276) = (   0.1267495   0.6986416   0.0000000), wk =   0.0009259
        k(  277) = (   0.8767495   1.2759919   0.0000000), wk =   0.0009259
        k(  278) = (   0.3350828   0.3377977   0.0000000), wk =   0.0009259
        k(  279) = (   0.1267495   0.7948667   0.0000000), wk =   0.0009259
        k(  280) = (   0.8767495   1.3722170   0.0000000), wk =   0.0009259
        k(  281) = (   0.2517495   0.2896852   0.0000000), wk =   0.0009259
        k(  282) = (   0.1267495   0.8910917   0.0000000), wk =   0.0009259
        k(  283) = (   0.8767495   1.4684420   0.0000000), wk =   0.0009259
        k(  284) = (   0.1684162   0.2415727   0.0000000), wk =   0.0009259
        k(  285) = (   0.1267495   0.9873168   0.0000000), wk =   0.0009259
        k(  286) = (   0.8767495   1.5646670   0.0000000), wk =   0.0009259
        k(  287) = (   0.0850828   0.1934602   0.0000000), wk =   0.0009259
        k(  288) = (   0.1267495   1.0835418   0.0000000), wk =   0.0009259
        k(  289) = (   0.8767495   0.5061916   0.0000000), wk =   0.0004630
        k(  290) = (   0.2100828   0.1694039   0.0000000), wk =   0.0009259
        k(  291) = (   0.7934162   0.7467542   0.0000000), wk =   0.0009259
        k(  292) = (   0.7517495   0.6745854   0.0000000), wk =   0.0009259
        k(  293) = (   0.2100828   0.2656289   0.0000000), wk =   0.0009259
        k(  294) = (   0.7934162   0.8429792   0.0000000), wk =   0.0009259
        k(  295) = (   0.6684162   0.6264729   0.0000000), wk =   0.0009259
        k(  296) = (   0.2100828   0.3618540   0.0000000), wk =   0.0009259
        k(  297) = (   0.7934162   0.9392043   0.0000000), wk =   0.0009259
        k(  298) = (   0.5850828   0.5783603   0.0000000), wk =   0.0009259
        k(  299) = (   0.2100828   0.4580790   0.0000000), wk =   0.0009259
        k(  300) = (   0.7934162   1.0354293   0.0000000), wk =   0.0009259
        k(  301) = (   0.5017495   0.5302478   0.0000000), wk =   0.0009259
        k(  302) = (   0.2100828   0.5543041   0.0000000), wk =   0.0009259
        k(  303) = (   0.7934162   1.1316543   0.0000000), wk =   0.0009259
        k(  304) = (   0.4184162   0.4821353   0.0000000), wk =   0.0009259
        k(  305) = (   0.2100828   0.6505291   0.0000000), wk =   0.0009259
        k(  306) = (   0.7934162   1.2278794   0.0000000), wk =   0.0009259
        k(  307) = (   0.3350828   0.4340228   0.0000000), wk =   0.0009259
        k(  308) = (   0.2100828   0.7467542   0.0000000), wk =   0.0009259
        k(  309) = (   0.7934162   1.3241044   0.0000000), wk =   0.0009259
        k(  310) = (   0.2517495   0.3859102   0.0000000), wk =   0.0009259
        k(  311) = (   0.2100828   0.8429792   0.0000000), wk =   0.0009259
        k(  312) = (   0.7934162   1.4203295   0.0000000), wk =   0.0009259
        k(  313) = (   0.1684162   0.3377977   0.0000000), wk =   0.0009259
        k(  314) = (   0.2100828   0.9392043   0.0000000), wk =   0.0009259
        k(  315) = (   0.7934162   1.5165545   0.0000000), wk =   0.0009259
        k(  316) = (   0.0850828   0.2896852   0.0000000), wk =   0.0009259
        k(  317) = (   0.2100828   1.0354293   0.0000000), wk =   0.0009259
        k(  318) = (   0.7934162   0.4580790   0.0000000), wk =   0.0004630
        k(  319) = (   0.2934162   0.2175164   0.0000000), wk =   0.0009259
        k(  320) = (   0.7100828   0.7948667   0.0000000), wk =   0.0009259
        k(  321) = (   0.6684162   0.7226979   0.0000000), wk =   0.0009259
        k(  322) = (   0.2934162   0.3137415   0.0000000), wk =   0.0009259
        k(  323) = (   0.7100828   0.8910917   0.0000000), wk =   0.0009259
        k(  324) = (   0.5850828   0.6745854   0.0000000), wk =   0.0009259
        k(  325) = (   0.2934162   0.4099665   0.0000000), wk =   0.0009259
        k(  326) = (   0.7100828   0.9873168   0.0000000), wk =   0.0009259
        k(  327) = (   0.5017495   0.6264729   0.0000000), wk =   0.0009259
        k(  328) = (   0.2934162   0.5061916   0.0000000), wk =   0.0009259
        k(  329) = (   0.7100828   1.0835418   0.0000000), wk =   0.0009259
        k(  330) = (   0.4184162   0.5783603   0.0000000), wk =   0.0009259
        k(  331) = (   0.2934162   0.6024166   0.0000000), wk =   0.0009259
        k(  332) = (   0.7100828   1.1797669   0.0000000), wk =   0.0009259
        k(  333) = (   0.3350828   0.5302478   0.0000000), wk =   0.0009259
        k(  334) = (   0.2934162   0.6986416   0.0000000), wk =   0.0009259
        k(  335) = (   0.7100828   1.2759919   0.0000000), wk =   0.0009259
        k(  336) = (   0.2517495   0.4821353   0.0000000), wk =   0.0009259
        k(  337) = (   0.2934162   0.7948667   0.0000000), wk =   0.0009259
        k(  338) = (   0.7100828   1.3722170   0.0000000), wk =   0.0009259
        k(  339) = (   0.1684162   0.4340228   0.0000000), wk =   0.0009259
        k(  340) = (   0.2934162   0.8910917   0.0000000), wk =   0.0009259
        k(  341) = (   0.7100828   1.4684420   0.0000000), wk =   0.0009259
        k(  342) = (   0.0850828   0.3859102   0.0000000), wk =   0.0009259
        k(  343) = (   0.2934162   0.9873168   0.0000000), wk =   0.0009259
        k(  344) = (   0.7100828   0.4099665   0.0000000), wk =   0.0004630
        k(  345) = (   0.3767495   0.2656289   0.0000000), wk =   0.0009259
        k(  346) = (   0.6267495   0.8429792   0.0000000), wk =   0.0009259
        k(  347) = (   0.5850828   0.7708104   0.0000000), wk =   0.0009259
        k(  348) = (   0.3767495   0.3618540   0.0000000), wk =   0.0009259
        k(  349) = (   0.6267495   0.9392043   0.0000000), wk =   0.0009259
        k(  350) = (   0.5017495   0.7226979   0.0000000), wk =   0.0009259
        k(  351) = (   0.3767495   0.4580790   0.0000000), wk =   0.0009259
        k(  352) = (   0.6267495   1.0354293   0.0000000), wk =   0.0009259
        k(  353) = (   0.4184162   0.6745854   0.0000000), wk =   0.0009259
        k(  354) = (   0.3767495   0.5543041   0.0000000), wk =   0.0009259
        k(  355) = (   0.6267495   1.1316543   0.0000000), wk =   0.0009259
        k(  356) = (   0.3350828   0.6264729   0.0000000), wk =   0.0009259
        k(  357) = (   0.3767495   0.6505291   0.0000000), wk =   0.0009259
        k(  358) = (   0.6267495   1.2278794   0.0000000), wk =   0.0009259
        k(  359) = (   0.2517495   0.5783603   0.0000000), wk =   0.0009259
        k(  360) = (   0.3767495   0.7467542   0.0000000), wk =   0.0009259
        k(  361) = (   0.6267495   1.3241044   0.0000000), wk =   0.0009259
        k(  362) = (   0.1684162   0.5302478   0.0000000), wk =   0.0009259
        k(  363) = (   0.3767495   0.8429792   0.0000000), wk =   0.0009259
        k(  364) = (   0.6267495   1.4203295   0.0000000), wk =   0.0009259
        k(  365) = (   0.0850828   0.4821353   0.0000000), wk =   0.0009259
        k(  366) = (   0.3767495   0.9392043   0.0000000), wk =   0.0009259
        k(  367) = (   0.6267495   0.3618540   0.0000000), wk =   0.0004630
        k(  368) = (   0.4600828   0.3137415   0.0000000), wk =   0.0009259
        k(  369) = (   0.5434162   0.8910917   0.0000000), wk =   0.0009259
        k(  370) = (   0.5017495   0.8189230   0.0000000), wk =   0.0009259
        k(  371) = (   0.4600828   0.4099665   0.0000000), wk =   0.0009259
        k(  372) = (   0.5434162   0.9873168   0.0000000), wk =   0.0009259
        k(  373) = (   0.4184162   0.7708104   0.0000000), wk =   0.0009259
        k(  374) = (   0.4600828   0.5061916   0.0000000), wk =   0.0009259
        k(  375) = (   0.5434162   1.0835418   0.0000000), wk =   0.0009259
        k(  376) = (   0.3350828   0.7226979   0.0000000), wk =   0.0009259
        k(  377) = (   0.4600828   0.6024166   0.0000000), wk =   0.0009259
        k(  378) = (   0.5434162   1.1797669   0.0000000), wk =   0.0009259
        k(  379) = (   0.2517495   0.6745854   0.0000000), wk =   0.0009259
        k(  380) = (   0.4600828   0.6986416   0.0000000), wk =   0.0009259
        k(  381) = (   0.5434162   1.2759919   0.0000000), wk =   0.0009259
        k(  382) = (   0.1684162   0.6264729   0.0000000), wk =   0.0009259
        k(  383) = (   0.4600828   0.7948667   0.0000000), wk =   0.0009259
        k(  384) = (   0.5434162   1.3722170   0.0000000), wk =   0.0009259
        k(  385) = (   0.0850828   0.5783603   0.0000000), wk =   0.0009259
        k(  386) = (   0.4600828   0.8910917   0.0000000), wk =   0.0009259
        k(  387) = (   0.5434162   0.3137415   0.0000000), wk =   0.0004630
        k(  388) = (   0.5434162   0.3618540   0.0000000), wk =   0.0009259
        k(  389) = (   0.4600828   0.9392043   0.0000000), wk =   0.0009259
        k(  390) = (   0.4184162   0.8670355   0.0000000), wk =   0.0009259
        k(  391) = (   0.5434162   0.4580790   0.0000000), wk =   0.0009259
        k(  392) = (   0.4600828   1.0354293   0.0000000), wk =   0.0009259
        k(  393) = (   0.3350828   0.8189230   0.0000000), wk =   0.0009259
        k(  394) = (   0.5434162   0.5543041   0.0000000), wk =   0.0009259
        k(  395) = (   0.4600828   1.1316543   0.0000000), wk =   0.0009259
        k(  396) = (   0.2517495   0.7708104   0.0000000), wk =   0.0009259
        k(  397) = (   0.5434162   0.6505291   0.0000000), wk =   0.0009259
        k(  398) = (   0.4600828   1.2278794   0.0000000), wk =   0.0009259
        k(  399) = (   0.1684162   0.7226979   0.0000000), wk =   0.0009259
        k(  400) = (   0.5434162   0.7467542   0.0000000), wk =   0.0009259
        k(  401) = (   0.4600828   1.3241044   0.0000000), wk =   0.0009259
        k(  402) = (   0.0850828   0.6745854   0.0000000), wk =   0.0009259
        k(  403) = (   0.5434162   0.8429792   0.0000000), wk =   0.0009259
        k(  404) = (   0.4600828   0.2656289   0.0000000), wk =   0.0004630
        k(  405) = (   0.6267495   0.4099665   0.0000000), wk =   0.0009259
        k(  406) = (   0.3767495   0.9873168   0.0000000), wk =   0.0009259
        k(  407) = (   0.3350828   0.9151480   0.0000000), wk =   0.0009259
        k(  408) = (   0.6267495   0.5061916   0.0000000), wk =   0.0009259
        k(  409) = (   0.3767495   1.0835418   0.0000000), wk =   0.0009259
        k(  410) = (   0.2517495   0.8670355   0.0000000), wk =   0.0009259
        k(  411) = (   0.6267495   0.6024166   0.0000000), wk =   0.0009259
        k(  412) = (   0.3767495   1.1797669   0.0000000), wk =   0.0009259
        k(  413) = (   0.1684162   0.8189230   0.0000000), wk =   0.0009259
        k(  414) = (   0.6267495   0.6986416   0.0000000), wk =   0.0009259
        k(  415) = (   0.3767495   1.2759919   0.0000000), wk =   0.0009259
        k(  416) = (   0.0850828   0.7708104   0.0000000), wk =   0.0009259
        k(  417) = (   0.6267495   0.7948667   0.0000000), wk =   0.0009259
        k(  418) = (   0.3767495   0.2175164   0.0000000), wk =   0.0004630
        k(  419) = (   0.7100828   0.4580790   0.0000000), wk =   0.0009259
        k(  420) = (   0.2934162   1.0354293   0.0000000), wk =   0.0009259
        k(  421) = (   0.2517495   0.9632605   0.0000000), wk =   0.0009259
        k(  422) = (   0.7100828   0.5543041   0.0000000), wk =   0.0009259
        k(  423) = (   0.2934162   1.1316543   0.0000000), wk =   0.0009259
        k(  424) = (   0.1684162   0.9151480   0.0000000), wk =   0.0009259
        k(  425) = (   0.7100828   0.6505291   0.0000000), wk =   0.0009259
        k(  426) = (   0.2934162   1.2278794   0.0000000), wk =   0.0009259
        k(  427) = (   0.0850828   0.8670355   0.0000000), wk =   0.0009259
        k(  428) = (   0.7100828   0.7467542   0.0000000), wk =   0.0009259
        k(  429) = (   0.2934162   0.1694039   0.0000000), wk =   0.0004630
        k(  430) = (   0.7934162   0.5061916   0.0000000), wk =   0.0009259
        k(  431) = (   0.2100828   1.0835418   0.0000000), wk =   0.0009259
        k(  432) = (   0.1684162   1.0113730   0.0000000), wk =   0.0009259
        k(  433) = (   0.7934162   0.6024166   0.0000000), wk =   0.0009259
        k(  434) = (   0.2100828   1.1797669   0.0000000), wk =   0.0009259
        k(  435) = (   0.0850828   0.9632605   0.0000000), wk =   0.0009259
        k(  436) = (   0.7934162   0.6986416   0.0000000), wk =   0.0009259
        k(  437) = (   0.2100828   0.1212914   0.0000000), wk =   0.0004630
        k(  438) = (   0.8767495   0.5543041   0.0000000), wk =   0.0009259
        k(  439) = (   0.1267495   1.1316543   0.0000000), wk =   0.0009259
        k(  440) = (   0.0850828   1.0594856   0.0000000), wk =   0.0009259
        k(  441) = (   0.8767495   0.6505291   0.0000000), wk =   0.0009259
        k(  442) = (   0.1267495   0.0731789   0.0000000), wk =   0.0004630
        k(  443) = (   0.9600828   0.6024166   0.0000000), wk =   0.0009259
        k(  444) = (   0.0434162   0.0250663   0.0000000), wk =   0.0004630
        k(  445) = (   0.0456030   0.0744414   0.0000000), wk =   0.0009259
        k(  446) = (   0.9622697   0.6517917   0.0000000), wk =   0.0009259
        k(  447) = (   0.9206030   0.5796229   0.0000000), wk =   0.0009259
        k(  448) = (   0.0456030   0.1706665   0.0000000), wk =   0.0009259
        k(  449) = (   0.9622697   0.7480168   0.0000000), wk =   0.0009259
        k(  450) = (   0.8372697   0.5315104   0.0000000), wk =   0.0009259
        k(  451) = (   0.0456030   0.2668915   0.0000000), wk =   0.0009259
        k(  452) = (   0.9622697   0.8442418   0.0000000), wk =   0.0009259
        k(  453) = (   0.7539364   0.4833979   0.0000000), wk =   0.0009259
        k(  454) = (   0.0456030   0.3631166   0.0000000), wk =   0.0009259
        k(  455) = (   0.9622697   0.9404668   0.0000000), wk =   0.0009259
        k(  456) = (   0.6706030   0.4352854   0.0000000), wk =   0.0009259
        k(  457) = (   0.0456030   0.4593416   0.0000000), wk =   0.0009259
        k(  458) = (   0.9622697   1.0366919   0.0000000), wk =   0.0009259
        k(  459) = (   0.5872697   0.3871728   0.0000000), wk =   0.0009259
        k(  460) = (   0.0456030   0.5555667   0.0000000), wk =   0.0009259
        k(  461) = (   0.9622697   1.1329169   0.0000000), wk =   0.0009259
        k(  462) = (   0.5039364   0.3390603   0.0000000), wk =   0.0009259
        k(  463) = (   0.0456030   0.6517917   0.0000000), wk =   0.0009259
        k(  464) = (   0.9622697   1.2291420   0.0000000), wk =   0.0009259
        k(  465) = (   0.4206030   0.2909478   0.0000000), wk =   0.0009259
        k(  466) = (   0.0456030   0.7480168   0.0000000), wk =   0.0009259
        k(  467) = (   0.9622697   1.3253670   0.0000000), wk =   0.0009259
        k(  468) = (   0.3372697   0.2428353   0.0000000), wk =   0.0009259
        k(  469) = (   0.0456030   0.8442418   0.0000000), wk =   0.0009259
        k(  470) = (   0.9622697   1.4215921   0.0000000), wk =   0.0009259
        k(  471) = (   0.2539364   0.1947227   0.0000000), wk =   0.0009259
        k(  472) = (   0.0456030   0.9404668   0.0000000), wk =   0.0009259
        k(  473) = (   0.9622697   1.5178171   0.0000000), wk =   0.0009259
        k(  474) = (   0.1706030   0.1466102   0.0000000), wk =   0.0009259
        k(  475) = (   0.0456030   1.0366919   0.0000000), wk =   0.0009259
        k(  476) = (   0.9622697   1.6140422   0.0000000), wk =   0.0009259
        k(  477) = (   0.0872697   0.0984977   0.0000000), wk =   0.0009259
        k(  478) = (   0.0456030   1.1329169   0.0000000), wk =   0.0009259
        k(  479) = (   0.9622697   0.5555667   0.0000000), wk =   0.0004630
        k(  480) = (   0.1289364   0.1225540   0.0000000), wk =   0.0009259
        k(  481) = (   0.8789364   0.6999042   0.0000000), wk =   0.0009259
        k(  482) = (   0.8372697   0.6277354   0.0000000), wk =   0.0009259
        k(  483) = (   0.1289364   0.2187790   0.0000000), wk =   0.0009259
        k(  484) = (   0.8789364   0.7961293   0.0000000), wk =   0.0009259
        k(  485) = (   0.7539364   0.5796229   0.0000000), wk =   0.0009259
        k(  486) = (   0.1289364   0.3150041   0.0000000), wk =   0.0009259
        k(  487) = (   0.8789364   0.8923543   0.0000000), wk =   0.0009259
        k(  488) = (   0.6706030   0.5315104   0.0000000), wk =   0.0009259
        k(  489) = (   0.1289364   0.4112291   0.0000000), wk =   0.0009259
        k(  490) = (   0.8789364   0.9885794   0.0000000), wk =   0.0009259
        k(  491) = (   0.5872697   0.4833979   0.0000000), wk =   0.0009259
        k(  492) = (   0.1289364   0.5074541   0.0000000), wk =   0.0009259
        k(  493) = (   0.8789364   1.0848044   0.0000000), wk =   0.0009259
        k(  494) = (   0.5039364   0.4352854   0.0000000), wk =   0.0009259
        k(  495) = (   0.1289364   0.6036792   0.0000000), wk =   0.0009259
        k(  496) = (   0.8789364   1.1810295   0.0000000), wk =   0.0009259
        k(  497) = (   0.4206030   0.3871728   0.0000000), wk =   0.0009259
        k(  498) = (   0.1289364   0.6999042   0.0000000), wk =   0.0009259
        k(  499) = (   0.8789364   1.2772545   0.0000000), wk =   0.0009259
        k(  500) = (   0.3372697   0.3390603   0.0000000), wk =   0.0009259
        k(  501) = (   0.1289364   0.7961293   0.0000000), wk =   0.0009259
        k(  502) = (   0.8789364   1.3734795   0.0000000), wk =   0.0009259
        k(  503) = (   0.2539364   0.2909478   0.0000000), wk =   0.0009259
        k(  504) = (   0.1289364   0.8923543   0.0000000), wk =   0.0009259
        k(  505) = (   0.8789364   1.4697046   0.0000000), wk =   0.0009259
        k(  506) = (   0.1706030   0.2428353   0.0000000), wk =   0.0009259
        k(  507) = (   0.1289364   0.9885794   0.0000000), wk =   0.0009259
        k(  508) = (   0.8789364   1.5659296   0.0000000), wk =   0.0009259
        k(  509) = (   0.0872697   0.1947227   0.0000000), wk =   0.0009259
        k(  510) = (   0.1289364   1.0848044   0.0000000), wk =   0.0009259
        k(  511) = (   0.8789364   0.5074541   0.0000000), wk =   0.0004630
        k(  512) = (   0.2122697   0.1706665   0.0000000), wk =   0.0009259
        k(  513) = (   0.7956030   0.7480168   0.0000000), wk =   0.0009259
        k(  514) = (   0.7539364   0.6758480   0.0000000), wk =   0.0009259
        k(  515) = (   0.2122697   0.2668915   0.0000000), wk =   0.0009259
        k(  516) = (   0.7956030   0.8442418   0.0000000), wk =   0.0009259
        k(  517) = (   0.6706030   0.6277354   0.0000000), wk =   0.0009259
        k(  518) = (   0.2122697   0.3631166   0.0000000), wk =   0.0009259
        k(  519) = (   0.7956030   0.9404668   0.0000000), wk =   0.0009259
        k(  520) = (   0.5872697   0.5796229   0.0000000), wk =   0.0009259
        k(  521) = (   0.2122697   0.4593416   0.0000000), wk =   0.0009259
        k(  522) = (   0.7956030   1.0366919   0.0000000), wk =   0.0009259
        k(  523) = (   0.5039364   0.5315104   0.0000000), wk =   0.0009259
        k(  524) = (   0.2122697   0.5555667   0.0000000), wk =   0.0009259
        k(  525) = (   0.7956030   1.1329169   0.0000000), wk =   0.0009259
        k(  526) = (   0.4206030   0.4833979   0.0000000), wk =   0.0009259
        k(  527) = (   0.2122697   0.6517917   0.0000000), wk =   0.0009259
        k(  528) = (   0.7956030   1.2291420   0.0000000), wk =   0.0009259
        k(  529) = (   0.3372697   0.4352854   0.0000000), wk =   0.0009259
        k(  530) = (   0.2122697   0.7480168   0.0000000), wk =   0.0009259
        k(  531) = (   0.7956030   1.3253670   0.0000000), wk =   0.0009259
        k(  532) = (   0.2539364   0.3871728   0.0000000), wk =   0.0009259
        k(  533) = (   0.2122697   0.8442418   0.0000000), wk =   0.0009259
        k(  534) = (   0.7956030   1.4215921   0.0000000), wk =   0.0009259
        k(  535) = (   0.1706030   0.3390603   0.0000000), wk =   0.0009259
        k(  536) = (   0.2122697   0.9404668   0.0000000), wk =   0.0009259
        k(  537) = (   0.7956030   1.5178171   0.0000000), wk =   0.0009259
        k(  538) = (   0.0872697   0.2909478   0.0000000), wk =   0.0009259
        k(  539) = (   0.2122697   1.0366919   0.0000000), wk =   0.0009259
        k(  540) = (   0.7956030   0.4593416   0.0000000), wk =   0.0004630
        k(  541) = (   0.2956030   0.2187790   0.0000000), wk =   0.0009259
        k(  542) = (   0.7122697   0.7961293   0.0000000), wk =   0.0009259
        k(  543) = (   0.6706030   0.7239605   0.0000000), wk =   0.0009259
        k(  544) = (   0.2956030   0.3150041   0.0000000), wk =   0.0009259
        k(  545) = (   0.7122697   0.8923543   0.0000000), wk =   0.0009259
        k(  546) = (   0.5872697   0.6758480   0.0000000), wk =   0.0009259
        k(  547) = (   0.2956030   0.4112291   0.0000000), wk =   0.0009259
        k(  548) = (   0.7122697   0.9885794   0.0000000), wk =   0.0009259
        k(  549) = (   0.5039364   0.6277354   0.0000000), wk =   0.0009259
        k(  550) = (   0.2956030   0.5074541   0.0000000), wk =   0.0009259
        k(  551) = (   0.7122697   1.0848044   0.0000000), wk =   0.0009259
        k(  552) = (   0.4206030   0.5796229   0.0000000), wk =   0.0009259
        k(  553) = (   0.2956030   0.6036792   0.0000000), wk =   0.0009259
        k(  554) = (   0.7122697   1.1810295   0.0000000), wk =   0.0009259
        k(  555) = (   0.3372697   0.5315104   0.0000000), wk =   0.0009259
        k(  556) = (   0.2956030   0.6999042   0.0000000), wk =   0.0009259
        k(  557) = (   0.7122697   1.2772545   0.0000000), wk =   0.0009259
        k(  558) = (   0.2539364   0.4833979   0.0000000), wk =   0.0009259
        k(  559) = (   0.2956030   0.7961293   0.0000000), wk =   0.0009259
        k(  560) = (   0.7122697   1.3734795   0.0000000), wk =   0.0009259
        k(  561) = (   0.1706030   0.4352854   0.0000000), wk =   0.0009259
        k(  562) = (   0.2956030   0.8923543   0.0000000), wk =   0.0009259
        k(  563) = (   0.7122697   1.4697046   0.0000000), wk =   0.0009259
        k(  564) = (   0.0872697   0.3871728   0.0000000), wk =   0.0009259
        k(  565) = (   0.2956030   0.9885794   0.0000000), wk =   0.0009259
        k(  566) = (   0.7122697   0.4112291   0.0000000), wk =   0.0004630
        k(  567) = (   0.3789364   0.2668915   0.0000000), wk =   0.0009259
        k(  568) = (   0.6289364   0.8442418   0.0000000), wk =   0.0009259
        k(  569) = (   0.5872697   0.7720730   0.0000000), wk =   0.0009259
        k(  570) = (   0.3789364   0.3631166   0.0000000), wk =   0.0009259
        k(  571) = (   0.6289364   0.9404668   0.0000000), wk =   0.0009259
        k(  572) = (   0.5039364   0.7239605   0.0000000), wk =   0.0009259
        k(  573) = (   0.3789364   0.4593416   0.0000000), wk =   0.0009259
        k(  574) = (   0.6289364   1.0366919   0.0000000), wk =   0.0009259
        k(  575) = (   0.4206030   0.6758480   0.0000000), wk =   0.0009259
        k(  576) = (   0.3789364   0.5555667   0.0000000), wk =   0.0009259
        k(  577) = (   0.6289364   1.1329169   0.0000000), wk =   0.0009259
        k(  578) = (   0.3372697   0.6277354   0.0000000), wk =   0.0009259
        k(  579) = (   0.3789364   0.6517917   0.0000000), wk =   0.0009259
        k(  580) = (   0.6289364   1.2291420   0.0000000), wk =   0.0009259
        k(  581) = (   0.2539364   0.5796229   0.0000000), wk =   0.0009259
        k(  582) = (   0.3789364   0.7480168   0.0000000), wk =   0.0009259
        k(  583) = (   0.6289364   1.3253670   0.0000000), wk =   0.0009259
        k(  584) = (   0.1706030   0.5315104   0.0000000), wk =   0.0009259
        k(  585) = (   0.3789364   0.8442418   0.0000000), wk =   0.0009259
        k(  586) = (   0.6289364   1.4215921   0.0000000), wk =   0.0009259
        k(  587) = (   0.0872697   0.4833979   0.0000000), wk =   0.0009259
        k(  588) = (   0.3789364   0.9404668   0.0000000), wk =   0.0009259
        k(  589) = (   0.6289364   0.3631166   0.0000000), wk =   0.0004630
        k(  590) = (   0.4622697   0.3150041   0.0000000), wk =   0.0009259
        k(  591) = (   0.5456030   0.8923543   0.0000000), wk =   0.0009259
        k(  592) = (   0.5039364   0.8201855   0.0000000), wk =   0.0009259
        k(  593) = (   0.4622697   0.4112291   0.0000000), wk =   0.0009259
        k(  594) = (   0.5456030   0.9885794   0.0000000), wk =   0.0009259
        k(  595) = (   0.4206030   0.7720730   0.0000000), wk =   0.0009259
        k(  596) = (   0.4622697   0.5074541   0.0000000), wk =   0.0009259
        k(  597) = (   0.5456030   1.0848044   0.0000000), wk =   0.0009259
        k(  598) = (   0.3372697   0.7239605   0.0000000), wk =   0.0009259
        k(  599) = (   0.4622697   0.6036792   0.0000000), wk =   0.0009259
        k(  600) = (   0.5456030   1.1810295   0.0000000), wk =   0.0009259
        k(  601) = (   0.2539364   0.6758480   0.0000000), wk =   0.0009259
        k(  602) = (   0.4622697   0.6999042   0.0000000), wk =   0.0009259
        k(  603) = (   0.5456030   1.2772545   0.0000000), wk =   0.0009259
        k(  604) = (   0.1706030   0.6277354   0.0000000), wk =   0.0009259
        k(  605) = (   0.4622697   0.7961293   0.0000000), wk =   0.0009259
        k(  606) = (   0.5456030   1.3734795   0.0000000), wk =   0.0009259
        k(  607) = (   0.0872697   0.5796229   0.0000000), wk =   0.0009259
        k(  608) = (   0.4622697   0.8923543   0.0000000), wk =   0.0009259
        k(  609) = (   0.5456030   0.3150041   0.0000000), wk =   0.0004630
        k(  610) = (   0.5456030   0.3631166   0.0000000), wk =   0.0009259
        k(  611) = (   0.4622697   0.9404668   0.0000000), wk =   0.0009259
        k(  612) = (   0.4206030   0.8682981   0.0000000), wk =   0.0009259
        k(  613) = (   0.5456030   0.4593416   0.0000000), wk =   0.0009259
        k(  614) = (   0.4622697   1.0366919   0.0000000), wk =   0.0009259
        k(  615) = (   0.3372697   0.8201855   0.0000000), wk =   0.0009259
        k(  616) = (   0.5456030   0.5555667   0.0000000), wk =   0.0009259
        k(  617) = (   0.4622697   1.1329169   0.0000000), wk =   0.0009259
        k(  618) = (   0.2539364   0.7720730   0.0000000), wk =   0.0009259
        k(  619) = (   0.5456030   0.6517917   0.0000000), wk =   0.0009259
        k(  620) = (   0.4622697   1.2291420   0.0000000), wk =   0.0009259
        k(  621) = (   0.1706030   0.7239605   0.0000000), wk =   0.0009259
        k(  622) = (   0.5456030   0.7480168   0.0000000), wk =   0.0009259
        k(  623) = (   0.4622697   1.3253670   0.0000000), wk =   0.0009259
        k(  624) = (   0.0872697   0.6758480   0.0000000), wk =   0.0009259
        k(  625) = (   0.5456030   0.8442418   0.0000000), wk =   0.0009259
        k(  626) = (   0.4622697   0.2668915   0.0000000), wk =   0.0004630
        k(  627) = (   0.6289364   0.4112291   0.0000000), wk =   0.0009259
        k(  628) = (   0.3789364   0.9885794   0.0000000), wk =   0.0009259
        k(  629) = (   0.3372697   0.9164106   0.0000000), wk =   0.0009259
        k(  630) = (   0.6289364   0.5074541   0.0000000), wk =   0.0009259
        k(  631) = (   0.3789364   1.0848044   0.0000000), wk =   0.0009259
        k(  632) = (   0.2539364   0.8682981   0.0000000), wk =   0.0009259
        k(  633) = (   0.6289364   0.6036792   0.0000000), wk =   0.0009259
        k(  634) = (   0.3789364   1.1810295   0.0000000), wk =   0.0009259
        k(  635) = (   0.1706030   0.8201855   0.0000000), wk =   0.0009259
        k(  636) = (   0.6289364   0.6999042   0.0000000), wk =   0.0009259
        k(  637) = (   0.3789364   1.2772545   0.0000000), wk =   0.0009259
        k(  638) = (   0.0872697   0.7720730   0.0000000), wk =   0.0009259
        k(  639) = (   0.6289364   0.7961293   0.0000000), wk =   0.0009259
        k(  640) = (   0.3789364   0.2187790   0.0000000), wk =   0.0004630
        k(  641) = (   0.7122697   0.4593416   0.0000000), wk =   0.0009259
        k(  642) = (   0.2956030   1.0366919   0.0000000), wk =   0.0009259
        k(  643) = (   0.2539364   0.9645231   0.0000000), wk =   0.0009259
        k(  644) = (   0.7122697   0.5555667   0.0000000), wk =   0.0009259
        k(  645) = (   0.2956030   1.1329169   0.0000000), wk =   0.0009259
        k(  646) = (   0.1706030   0.9164106   0.0000000), wk =   0.0009259
        k(  647) = (   0.7122697   0.6517917   0.0000000), wk =   0.0009259
        k(  648) = (   0.2956030   1.2291420   0.0000000), wk =   0.0009259
        k(  649) = (   0.0872697   0.8682981   0.0000000), wk =   0.0009259
        k(  650) = (   0.7122697   0.7480168   0.0000000), wk =   0.0009259
        k(  651) = (   0.2956030   0.1706665   0.0000000), wk =   0.0004630
        k(  652) = (   0.7956030   0.5074541   0.0000000), wk =   0.0009259
        k(  653) = (   0.2122697   1.0848044   0.0000000), wk =   0.0009259
        k(  654) = (   0.1706030   1.0126356   0.0000000), wk =   0.0009259
        k(  655) = (   0.7956030   0.6036792   0.0000000), wk =   0.0009259
        k(  656) = (   0.2122697   1.1810295   0.0000000), wk =   0.0009259
        k(  657) = (   0.0872697   0.9645231   0.0000000), wk =   0.0009259
        k(  658) = (   0.7956030   0.6999042   0.0000000), wk =   0.0009259
        k(  659) = (   0.2122697   0.1225540   0.0000000), wk =   0.0004630
        k(  660) = (   0.8789364   0.5555667   0.0000000), wk =   0.0009259
        k(  661) = (   0.1289364   1.1329169   0.0000000), wk =   0.0009259
        k(  662) = (   0.0872697   1.0607482   0.0000000), wk =   0.0009259
        k(  663) = (   0.8789364   0.6517917   0.0000000), wk =   0.0009259
        k(  664) = (   0.1289364   0.0744414   0.0000000), wk =   0.0004630
        k(  665) = (   0.9622697   0.6036792   0.0000000), wk =   0.0009259
        k(  666) = (   0.0456030   0.0263289   0.0000000), wk =   0.0004630
        k(  667) = (   0.0486646   0.0762091   0.0000000), wk =   0.0009259
        k(  668) = (   0.9653313   0.6535593   0.0000000), wk =   0.0009259
        k(  669) = (   0.9236646   0.5813905   0.0000000), wk =   0.0009259
        k(  670) = (   0.0486646   0.1724341   0.0000000), wk =   0.0009259
        k(  671) = (   0.9653313   0.7497844   0.0000000), wk =   0.0009259
        k(  672) = (   0.8403313   0.5332780   0.0000000), wk =   0.0009259
        k(  673) = (   0.0486646   0.2686592   0.0000000), wk =   0.0009259
        k(  674) = (   0.9653313   0.8460094   0.0000000), wk =   0.0009259
        k(  675) = (   0.7569980   0.4851655   0.0000000), wk =   0.0009259
        k(  676) = (   0.0486646   0.3648842   0.0000000), wk =   0.0009259
        k(  677) = (   0.9653313   0.9422345   0.0000000), wk =   0.0009259
        k(  678) = (   0.6736646   0.4370530   0.0000000), wk =   0.0009259
        k(  679) = (   0.0486646   0.4611092   0.0000000), wk =   0.0009259
        k(  680) = (   0.9653313   1.0384595   0.0000000), wk =   0.0009259
        k(  681) = (   0.5903313   0.3889405   0.0000000), wk =   0.0009259
        k(  682) = (   0.0486646   0.5573343   0.0000000), wk =   0.0009259
        k(  683) = (   0.9653313   1.1346846   0.0000000), wk =   0.0009259
        k(  684) = (   0.5069980   0.3408279   0.0000000), wk =   0.0009259
        k(  685) = (   0.0486646   0.6535593   0.0000000), wk =   0.0009259
        k(  686) = (   0.9653313   1.2309096   0.0000000), wk =   0.0009259
        k(  687) = (   0.4236646   0.2927154   0.0000000), wk =   0.0009259
        k(  688) = (   0.0486646   0.7497844   0.0000000), wk =   0.0009259
        k(  689) = (   0.9653313   1.3271346   0.0000000), wk =   0.0009259
        k(  690) = (   0.3403313   0.2446029   0.0000000), wk =   0.0009259
        k(  691) = (   0.0486646   0.8460094   0.0000000), wk =   0.0009259
        k(  692) = (   0.9653313   1.4233597   0.0000000), wk =   0.0009259
        k(  693) = (   0.2569980   0.1964904   0.0000000), wk =   0.0009259
        k(  694) = (   0.0486646   0.9422345   0.0000000), wk =   0.0009259
        k(  695) = (   0.9653313   1.5195847   0.0000000), wk =   0.0009259
        k(  696) = (   0.1736646   0.1483778   0.0000000), wk =   0.0009259
        k(  697) = (   0.0486646   1.0384595   0.0000000), wk =   0.0009259
        k(  698) = (   0.9653313   1.6158098   0.0000000), wk =   0.0009259
        k(  699) = (   0.0903313   0.1002653   0.0000000), wk =   0.0009259
        k(  700) = (   0.0486646   1.1346846   0.0000000), wk =   0.0009259
        k(  701) = (   0.9653313   0.5573343   0.0000000), wk =   0.0004630
        k(  702) = (   0.1319980   0.1243216   0.0000000), wk =   0.0009259
        k(  703) = (   0.8819980   0.7016719   0.0000000), wk =   0.0009259
        k(  704) = (   0.8403313   0.6295031   0.0000000), wk =   0.0009259
        k(  705) = (   0.1319980   0.2205466   0.0000000), wk =   0.0009259
        k(  706) = (   0.8819980   0.7978969   0.0000000), wk =   0.0009259
        k(  707) = (   0.7569980   0.5813905   0.0000000), wk =   0.0009259
        k(  708) = (   0.1319980   0.3167717   0.0000000), wk =   0.0009259
        k(  709) = (   0.8819980   0.8941219   0.0000000), wk =   0.0009259
        k(  710) = (   0.6736646   0.5332780   0.0000000), wk =   0.0009259
        k(  711) = (   0.1319980   0.4129967   0.0000000), wk =   0.0009259
        k(  712) = (   0.8819980   0.9903470   0.0000000), wk =   0.0009259
        k(  713) = (   0.5903313   0.4851655   0.0000000), wk =   0.0009259
        k(  714) = (   0.1319980   0.5092218   0.0000000), wk =   0.0009259
        k(  715) = (   0.8819980   1.0865720   0.0000000), wk =   0.0009259
        k(  716) = (   0.5069980   0.4370530   0.0000000), wk =   0.0009259
        k(  717) = (   0.1319980   0.6054468   0.0000000), wk =   0.0009259
        k(  718) = (   0.8819980   1.1827971   0.0000000), wk =   0.0009259
        k(  719) = (   0.4236646   0.3889405   0.0000000), wk =   0.0009259
        k(  720) = (   0.1319980   0.7016719   0.0000000), wk =   0.0009259
        k(  721) = (   0.8819980   1.2790221   0.0000000), wk =   0.0009259
        k(  722) = (   0.3403313   0.3408279   0.0000000), wk =   0.0009259
        k(  723) = (   0.1319980   0.7978969   0.0000000), wk =   0.0009259
        k(  724) = (   0.8819980   1.3752472   0.0000000), wk =   0.0009259
        k(  725) = (   0.2569980   0.2927154   0.0000000), wk =   0.0009259
        k(  726) = (   0.1319980   0.8941219   0.0000000), wk =   0.0009259
        k(  727) = (   0.8819980   1.4714722   0.0000000), wk =   0.0009259
        k(  728) = (   0.1736646   0.2446029   0.0000000), wk =   0.0009259
        k(  729) = (   0.1319980   0.9903470   0.0000000), wk =   0.0009259
        k(  730) = (   0.8819980   1.5676973   0.0000000), wk =   0.0009259
        k(  731) = (   0.0903313   0.1964904   0.0000000), wk =   0.0009259
        k(  732) = (   0.1319980   1.0865720   0.0000000), wk =   0.0009259
        k(  733) = (   0.8819980   0.5092218   0.0000000), wk =   0.0004630
        k(  734) = (   0.2153313   0.1724341   0.0000000), wk =   0.0009259
        k(  735) = (   0.7986646   0.7497844   0.0000000), wk =   0.0009259
        k(  736) = (   0.7569980   0.6776156   0.0000000), wk =   0.0009259
        k(  737) = (   0.2153313   0.2686592   0.0000000), wk =   0.0009259
        k(  738) = (   0.7986646   0.8460094   0.0000000), wk =   0.0009259
        k(  739) = (   0.6736646   0.6295031   0.0000000), wk =   0.0009259
        k(  740) = (   0.2153313   0.3648842   0.0000000), wk =   0.0009259
        k(  741) = (   0.7986646   0.9422345   0.0000000), wk =   0.0009259
        k(  742) = (   0.5903313   0.5813905   0.0000000), wk =   0.0009259
        k(  743) = (   0.2153313   0.4611092   0.0000000), wk =   0.0009259
        k(  744) = (   0.7986646   1.0384595   0.0000000), wk =   0.0009259
        k(  745) = (   0.5069980   0.5332780   0.0000000), wk =   0.0009259
        k(  746) = (   0.2153313   0.5573343   0.0000000), wk =   0.0009259
        k(  747) = (   0.7986646   1.1346846   0.0000000), wk =   0.0009259
        k(  748) = (   0.4236646   0.4851655   0.0000000), wk =   0.0009259
        k(  749) = (   0.2153313   0.6535593   0.0000000), wk =   0.0009259
        k(  750) = (   0.7986646   1.2309096   0.0000000), wk =   0.0009259
        k(  751) = (   0.3403313   0.4370530   0.0000000), wk =   0.0009259
        k(  752) = (   0.2153313   0.7497844   0.0000000), wk =   0.0009259
        k(  753) = (   0.7986646   1.3271346   0.0000000), wk =   0.0009259
        k(  754) = (   0.2569980   0.3889405   0.0000000), wk =   0.0009259
        k(  755) = (   0.2153313   0.8460094   0.0000000), wk =   0.0009259
        k(  756) = (   0.7986646   1.4233597   0.0000000), wk =   0.0009259
        k(  757) = (   0.1736646   0.3408279   0.0000000), wk =   0.0009259
        k(  758) = (   0.2153313   0.9422345   0.0000000), wk =   0.0009259
        k(  759) = (   0.7986646   1.5195847   0.0000000), wk =   0.0009259
        k(  760) = (   0.0903313   0.2927154   0.0000000), wk =   0.0009259
        k(  761) = (   0.2153313   1.0384595   0.0000000), wk =   0.0009259
        k(  762) = (   0.7986646   0.4611092   0.0000000), wk =   0.0004630
        k(  763) = (   0.2986646   0.2205466   0.0000000), wk =   0.0009259
        k(  764) = (   0.7153313   0.7978969   0.0000000), wk =   0.0009259
        k(  765) = (   0.6736646   0.7257281   0.0000000), wk =   0.0009259
        k(  766) = (   0.2986646   0.3167717   0.0000000), wk =   0.0009259
        k(  767) = (   0.7153313   0.8941219   0.0000000), wk =   0.0009259
        k(  768) = (   0.5903313   0.6776156   0.0000000), wk =   0.0009259
        k(  769) = (   0.2986646   0.4129967   0.0000000), wk =   0.0009259
        k(  770) = (   0.7153313   0.9903470   0.0000000), wk =   0.0009259
        k(  771) = (   0.5069980   0.6295031   0.0000000), wk =   0.0009259
        k(  772) = (   0.2986646   0.5092218   0.0000000), wk =   0.0009259
        k(  773) = (   0.7153313   1.0865720   0.0000000), wk =   0.0009259
        k(  774) = (   0.4236646   0.5813905   0.0000000), wk =   0.0009259
        k(  775) = (   0.2986646   0.6054468   0.0000000), wk =   0.0009259
        k(  776) = (   0.7153313   1.1827971   0.0000000), wk =   0.0009259
        k(  777) = (   0.3403313   0.5332780   0.0000000), wk =   0.0009259
        k(  778) = (   0.2986646   0.7016719   0.0000000), wk =   0.0009259
        k(  779) = (   0.7153313   1.2790221   0.0000000), wk =   0.0009259
        k(  780) = (   0.2569980   0.4851655   0.0000000), wk =   0.0009259
        k(  781) = (   0.2986646   0.7978969   0.0000000), wk =   0.0009259
        k(  782) = (   0.7153313   1.3752472   0.0000000), wk =   0.0009259
        k(  783) = (   0.1736646   0.4370530   0.0000000), wk =   0.0009259
        k(  784) = (   0.2986646   0.8941219   0.0000000), wk =   0.0009259
        k(  785) = (   0.7153313   1.4714722   0.0000000), wk =   0.0009259
        k(  786) = (   0.0903313   0.3889405   0.0000000), wk =   0.0009259
        k(  787) = (   0.2986646   0.9903470   0.0000000), wk =   0.0009259
        k(  788) = (   0.7153313   0.4129967   0.0000000), wk =   0.0004630
        k(  789) = (   0.3819980   0.2686592   0.0000000), wk =   0.0009259
        k(  790) = (   0.6319980   0.8460094   0.0000000), wk =   0.0009259
        k(  791) = (   0.5903313   0.7738406   0.0000000), wk =   0.0009259
        k(  792) = (   0.3819980   0.3648842   0.0000000), wk =   0.0009259
        k(  793) = (   0.6319980   0.9422345   0.0000000), wk =   0.0009259
        k(  794) = (   0.5069980   0.7257281   0.0000000), wk =   0.0009259
        k(  795) = (   0.3819980   0.4611092   0.0000000), wk =   0.0009259
        k(  796) = (   0.6319980   1.0384595   0.0000000), wk =   0.0009259
        k(  797) = (   0.4236646   0.6776156   0.0000000), wk =   0.0009259
        k(  798) = (   0.3819980   0.5573343   0.0000000), wk =   0.0009259
        k(  799) = (   0.6319980   1.1346846   0.0000000), wk =   0.0009259
        k(  800) = (   0.3403313   0.6295031   0.0000000), wk =   0.0009259
        k(  801) = (   0.3819980   0.6535593   0.0000000), wk =   0.0009259
        k(  802) = (   0.6319980   1.2309096   0.0000000), wk =   0.0009259
        k(  803) = (   0.2569980   0.5813905   0.0000000), wk =   0.0009259
        k(  804) = (   0.3819980   0.7497844   0.0000000), wk =   0.0009259
        k(  805) = (   0.6319980   1.3271346   0.0000000), wk =   0.0009259
        k(  806) = (   0.1736646   0.5332780   0.0000000), wk =   0.0009259
        k(  807) = (   0.3819980   0.8460094   0.0000000), wk =   0.0009259
        k(  808) = (   0.6319980   1.4233597   0.0000000), wk =   0.0009259
        k(  809) = (   0.0903313   0.4851655   0.0000000), wk =   0.0009259
        k(  810) = (   0.3819980   0.9422345   0.0000000), wk =   0.0009259
        k(  811) = (   0.6319980   0.3648842   0.0000000), wk =   0.0004630
        k(  812) = (   0.4653313   0.3167717   0.0000000), wk =   0.0009259
        k(  813) = (   0.5486646   0.8941219   0.0000000), wk =   0.0009259
        k(  814) = (   0.5069980   0.8219532   0.0000000), wk =   0.0009259
        k(  815) = (   0.4653313   0.4129967   0.0000000), wk =   0.0009259
        k(  816) = (   0.5486646   0.9903470   0.0000000), wk =   0.0009259
        k(  817) = (   0.4236646   0.7738406   0.0000000), wk =   0.0009259
        k(  818) = (   0.4653313   0.5092218   0.0000000), wk =   0.0009259
        k(  819) = (   0.5486646   1.0865720   0.0000000), wk =   0.0009259
        k(  820) = (   0.3403313   0.7257281   0.0000000), wk =   0.0009259
        k(  821) = (   0.4653313   0.6054468   0.0000000), wk =   0.0009259
        k(  822) = (   0.5486646   1.1827971   0.0000000), wk =   0.0009259
        k(  823) = (   0.2569980   0.6776156   0.0000000), wk =   0.0009259
        k(  824) = (   0.4653313   0.7016719   0.0000000), wk =   0.0009259
        k(  825) = (   0.5486646   1.2790221   0.0000000), wk =   0.0009259
        k(  826) = (   0.1736646   0.6295031   0.0000000), wk =   0.0009259
        k(  827) = (   0.4653313   0.7978969   0.0000000), wk =   0.0009259
        k(  828) = (   0.5486646   1.3752472   0.0000000), wk =   0.0009259
        k(  829) = (   0.0903313   0.5813905   0.0000000), wk =   0.0009259
        k(  830) = (   0.4653313   0.8941219   0.0000000), wk =   0.0009259
        k(  831) = (   0.5486646   0.3167717   0.0000000), wk =   0.0004630
        k(  832) = (   0.5486646   0.3648842   0.0000000), wk =   0.0009259
        k(  833) = (   0.4653313   0.9422345   0.0000000), wk =   0.0009259
        k(  834) = (   0.4236646   0.8700657   0.0000000), wk =   0.0009259
        k(  835) = (   0.5486646   0.4611092   0.0000000), wk =   0.0009259
        k(  836) = (   0.4653313   1.0384595   0.0000000), wk =   0.0009259
        k(  837) = (   0.3403313   0.8219532   0.0000000), wk =   0.0009259
        k(  838) = (   0.5486646   0.5573343   0.0000000), wk =   0.0009259
        k(  839) = (   0.4653313   1.1346846   0.0000000), wk =   0.0009259
        k(  840) = (   0.2569980   0.7738406   0.0000000), wk =   0.0009259
        k(  841) = (   0.5486646   0.6535593   0.0000000), wk =   0.0009259
        k(  842) = (   0.4653313   1.2309096   0.0000000), wk =   0.0009259
        k(  843) = (   0.1736646   0.7257281   0.0000000), wk =   0.0009259
        k(  844) = (   0.5486646   0.7497844   0.0000000), wk =   0.0009259
        k(  845) = (   0.4653313   1.3271346   0.0000000), wk =   0.0009259
        k(  846) = (   0.0903313   0.6776156   0.0000000), wk =   0.0009259
        k(  847) = (   0.5486646   0.8460094   0.0000000), wk =   0.0009259
        k(  848) = (   0.4653313   0.2686592   0.0000000), wk =   0.0004630
        k(  849) = (   0.6319980   0.4129967   0.0000000), wk =   0.0009259
        k(  850) = (   0.3819980   0.9903470   0.0000000), wk =   0.0009259
        k(  851) = (   0.3403313   0.9181782   0.0000000), wk =   0.0009259
        k(  852) = (   0.6319980   0.5092218   0.0000000), wk =   0.0009259
        k(  853) = (   0.3819980   1.0865720   0.0000000), wk =   0.0009259
        k(  854) = (   0.2569980   0.8700657   0.0000000), wk =   0.0009259
        k(  855) = (   0.6319980   0.6054468   0.0000000), wk =   0.0009259
        k(  856) = (   0.3819980   1.1827971   0.0000000), wk =   0.0009259
        k(  857) = (   0.1736646   0.8219532   0.0000000), wk =   0.0009259
        k(  858) = (   0.6319980   0.7016719   0.0000000), wk =   0.0009259
        k(  859) = (   0.3819980   1.2790221   0.0000000), wk =   0.0009259
        k(  860) = (   0.0903313   0.7738406   0.0000000), wk =   0.0009259
        k(  861) = (   0.6319980   0.7978969   0.0000000), wk =   0.0009259
        k(  862) = (   0.3819980   0.2205466   0.0000000), wk =   0.0004630
        k(  863) = (   0.7153313   0.4611092   0.0000000), wk =   0.0009259
        k(  864) = (   0.2986646   1.0384595   0.0000000), wk =   0.0009259
        k(  865) = (   0.2569980   0.9662907   0.0000000), wk =   0.0009259
        k(  866) = (   0.7153313   0.5573343   0.0000000), wk =   0.0009259
        k(  867) = (   0.2986646   1.1346846   0.0000000), wk =   0.0009259
        k(  868) = (   0.1736646   0.9181782   0.0000000), wk =   0.0009259
        k(  869) = (   0.7153313   0.6535593   0.0000000), wk =   0.0009259
        k(  870) = (   0.2986646   1.2309096   0.0000000), wk =   0.0009259
        k(  871) = (   0.0903313   0.8700657   0.0000000), wk =   0.0009259
        k(  872) = (   0.7153313   0.7497844   0.0000000), wk =   0.0009259
        k(  873) = (   0.2986646   0.1724341   0.0000000), wk =   0.0004630
        k(  874) = (   0.7986646   0.5092218   0.0000000), wk =   0.0009259
        k(  875) = (   0.2153313   1.0865720   0.0000000), wk =   0.0009259
        k(  876) = (   0.1736646   1.0144032   0.0000000), wk =   0.0009259
        k(  877) = (   0.7986646   0.6054468   0.0000000), wk =   0.0009259
        k(  878) = (   0.2153313   1.1827971   0.0000000), wk =   0.0009259
        k(  879) = (   0.0903313   0.9662907   0.0000000), wk =   0.0009259
        k(  880) = (   0.7986646   0.7016719   0.0000000), wk =   0.0009259
        k(  881) = (   0.2153313   0.1243216   0.0000000), wk =   0.0004630
        k(  882) = (   0.8819980   0.5573343   0.0000000), wk =   0.0009259
        k(  883) = (   0.1319980   1.1346846   0.0000000), wk =   0.0009259
        k(  884) = (   0.0903313   1.0625158   0.0000000), wk =   0.0009259
        k(  885) = (   0.8819980   0.6535593   0.0000000), wk =   0.0009259
        k(  886) = (   0.1319980   0.0762091   0.0000000), wk =   0.0004630
        k(  887) = (   0.9653313   0.6054468   0.0000000), wk =   0.0009259
        k(  888) = (   0.0486646   0.0280965   0.0000000), wk =   0.0004630
        k(  889) = (   0.0526010   0.0784817   0.0000000), wk =   0.0009259
        k(  890) = (   0.9692677   0.6558320   0.0000000), wk =   0.0009259
        k(  891) = (   0.9276010   0.5836632   0.0000000), wk =   0.0009259
        k(  892) = (   0.0526010   0.1747068   0.0000000), wk =   0.0009259
        k(  893) = (   0.9692677   0.7520570   0.0000000), wk =   0.0009259
        k(  894) = (   0.8442677   0.5355507   0.0000000), wk =   0.0009259
        k(  895) = (   0.0526010   0.2709318   0.0000000), wk =   0.0009259
        k(  896) = (   0.9692677   0.8482821   0.0000000), wk =   0.0009259
        k(  897) = (   0.7609343   0.4874382   0.0000000), wk =   0.0009259
        k(  898) = (   0.0526010   0.3671569   0.0000000), wk =   0.0009259
        k(  899) = (   0.9692677   0.9445071   0.0000000), wk =   0.0009259
        k(  900) = (   0.6776010   0.4393256   0.0000000), wk =   0.0009259
        k(  901) = (   0.0526010   0.4633819   0.0000000), wk =   0.0009259
        k(  902) = (   0.9692677   1.0407322   0.0000000), wk =   0.0009259
        k(  903) = (   0.5942677   0.3912131   0.0000000), wk =   0.0009259
        k(  904) = (   0.0526010   0.5596069   0.0000000), wk =   0.0009259
        k(  905) = (   0.9692677   1.1369572   0.0000000), wk =   0.0009259
        k(  906) = (   0.5109343   0.3431006   0.0000000), wk =   0.0009259
        k(  907) = (   0.0526010   0.6558320   0.0000000), wk =   0.0009259
        k(  908) = (   0.9692677   1.2331823   0.0000000), wk =   0.0009259
        k(  909) = (   0.4276010   0.2949881   0.0000000), wk =   0.0009259
        k(  910) = (   0.0526010   0.7520570   0.0000000), wk =   0.0009259
        k(  911) = (   0.9692677   1.3294073   0.0000000), wk =   0.0009259
        k(  912) = (   0.3442677   0.2468755   0.0000000), wk =   0.0009259
        k(  913) = (   0.0526010   0.8482821   0.0000000), wk =   0.0009259
        k(  914) = (   0.9692677   1.4256323   0.0000000), wk =   0.0009259
        k(  915) = (   0.2609343   0.1987630   0.0000000), wk =   0.0009259
        k(  916) = (   0.0526010   0.9445071   0.0000000), wk =   0.0009259
        k(  917) = (   0.9692677   1.5218574   0.0000000), wk =   0.0009259
        k(  918) = (   0.1776010   0.1506505   0.0000000), wk =   0.0009259
        k(  919) = (   0.0526010   1.0407322   0.0000000), wk =   0.0009259
        k(  920) = (   0.9692677   1.6180824   0.0000000), wk =   0.0009259
        k(  921) = (   0.0942677   0.1025380   0.0000000), wk =   0.0009259
        k(  922) = (   0.0526010   1.1369572   0.0000000), wk =   0.0009259
        k(  923) = (   0.9692677   0.5596069   0.0000000), wk =   0.0004630
        k(  924) = (   0.1359343   0.1265942   0.0000000), wk =   0.0009259
        k(  925) = (   0.8859343   0.7039445   0.0000000), wk =   0.0009259
        k(  926) = (   0.8442677   0.6317757   0.0000000), wk =   0.0009259
        k(  927) = (   0.1359343   0.2228193   0.0000000), wk =   0.0009259
        k(  928) = (   0.8859343   0.8001696   0.0000000), wk =   0.0009259
[...]

          k = 0.4604 0.4102 0.0000 (  7246 PWs)   bands (ev):

   -18.5592 -13.0061  -9.3313  -5.1228

          k = 0.1687 0.7229 0.0000 (  7235 PWs)   bands (ev):

   -19.1292 -11.8364  -9.4864  -5.9852

          k = 0.9187 1.3002 0.0000 (  7256 PWs)   bands (ev):

   -19.3666 -11.9229  -8.5755  -6.3205

          k = 0.3771 0.3620 0.0000 (  7259 PWs)   bands (ev):

   -18.7295 -12.7477  -9.2627  -5.3867

          k = 0.1687 0.8191 0.0000 (  7252 PWs)   bands (ev):

   -19.9178 -10.5126  -8.7874  -7.0985

          k = 0.9187 1.3965 0.0000 (  7265 PWs)   bands (ev):

   -20.1895 -10.3300  -8.0256  -7.4719

          k = 0.2937 0.3139 0.0000 (  7257 PWs)   bands (ev):

   -19.4363 -11.5814  -8.8931  -6.4226

          k = 0.1687 0.9153 0.0000 (  7278 PWs)   bands (ev):

   -20.6170  -9.2344  -8.0563  -7.7992

          k = 0.9187 1.4927 0.0000 (  7278 PWs)   bands (ev):

   -20.9114  -8.6249  -8.4550  -7.2839

          k = 0.2104 0.2658 0.0000 (  7265 PWs)   bands (ev):

   -20.2405 -10.0409  -8.2414  -7.5426

          k = 0.1687 1.0116 0.0000 (  7269 PWs)   bands (ev):

   -21.1173  -8.7328  -8.1477  -6.9013

          k = 0.9187 1.5889 0.0000 (  7273 PWs)   bands (ev):

   -21.4251  -9.1463  -7.1603  -6.5017

          k = 0.1271 0.2177 0.0000 (  7299 PWs)   bands (ev):

   -20.9161  -8.5401  -8.4614  -7.3718

          k = 0.1687 1.1078 0.0000 (  7290 PWs)   bands (ev):

   -21.3742  -9.0780  -7.3552  -6.5477

          k = 0.9187 0.5304 0.0000 (  7291 PWs)   bands (ev):

   -21.6881  -9.4984  -6.2698  -5.9973

          k = 0.2521 0.1936 0.0000 (  7272 PWs)   bands (ev):

   -20.4203  -9.9397  -7.7878  -7.6450

          k = 0.8354 0.7710 0.0000 (  7276 PWs)   bands (ev):

   -20.9019  -8.6389  -8.4422  -7.3099

          k = 0.7937 0.6988 0.0000 (  7285 PWs)   bands (ev):

   -21.0023  -8.5776  -8.5113  -6.9954

          k = 0.2521 0.2899 0.0000 (  7255 PWs)   bands (ev):

   -19.8451 -10.8293  -8.6004  -6.9969

          k = 0.8354 0.8672 0.0000 (  7262 PWs)   bands (ev):

   -20.2876  -9.8518  -8.3149  -7.6074

          k = 0.7104 0.6507 0.0000 (  7262 PWs)   bands (ev):

   -20.5720  -9.4697  -7.9950  -7.6720

          k = 0.2521 0.3861 0.0000 (  7258 PWs)   bands (ev):

   -19.1404 -11.6178  -9.7581  -6.0034

          k = 0.8354 0.9634 0.0000 (  7247 PWs)   bands (ev):

   -19.5189 -11.2177  -9.1571  -6.5414

          k = 0.6271 0.6026 0.0000 (  7258 PWs)   bands (ev):

   -19.9344 -10.4940  -8.7541  -7.1215

          k = 0.2521 0.4823 0.0000 (  7236 PWs)   bands (ev):

   -18.4816 -12.2749 -10.6228  -5.0239

          k = 0.8354 1.0597 0.0000 (  7257 PWs)   bands (ev):

   -18.7728 -12.4210  -9.6608  -5.4590

          k = 0.5437 0.5545 0.0000 (  7256 PWs)   bands (ev):

   -19.1781 -11.5650  -9.7204  -6.0578

          k = 0.2521 0.5785 0.0000 (  7232 PWs)   bands (ev):

   -18.1929 -12.5715 -10.9155  -4.5618

          k = 0.8354 1.1559 0.0000 (  7258 PWs)   bands (ev):

   -18.4315 -12.9285  -9.8241  -4.9298

          k = 0.4604 0.5064 0.0000 (  7261 PWs)   bands (ev):

   -18.5146 -12.4841 -10.2639  -5.0703

          k = 0.2521 0.6748 0.0000 (  7234 PWs)   bands (ev):

   -18.4950 -12.2613 -10.6079  -5.0447

          k = 0.8354 1.2521 0.0000 (  7257 PWs)   bands (ev):

   -18.7885 -12.3971  -9.6524  -5.4825

          k = 0.3771 0.4583 0.0000 (  7252 PWs)   bands (ev):

   -18.3287 -12.7361 -10.3770  -4.7753

          k = 0.2521 0.7710 0.0000 (  7256 PWs)   bands (ev):

   -19.1584 -11.5995  -9.7311  -6.0293

          k = 0.8354 1.3483 0.0000 (  7247 PWs)   bands (ev):

   -19.5388 -11.1838  -9.1401  -6.5694

          k = 0.2937 0.4102 0.0000 (  7252 PWs)   bands (ev):

   -18.7802 -12.1189 -10.0750  -5.4751

          k = 0.2521 0.8672 0.0000 (  7257 PWs)   bands (ev):

   -19.8615 -10.8083  -8.5721  -7.0195

          k = 0.8354 1.4446 0.0000 (  7262 PWs)   bands (ev):

   -20.3052  -9.8191  -8.2904  -7.6315

          k = 0.2104 0.3620 0.0000 (  7258 PWs)   bands (ev):

   -19.5240 -11.0801  -9.3289  -6.5494

          k = 0.2521 0.9634 0.0000 (  7276 PWs)   bands (ev):

   -20.4322  -9.9168  -7.8040  -7.6280

          k = 0.8354 1.5408 0.0000 (  7278 PWs)   bands (ev):

   -20.9145  -8.6115  -8.4592  -7.2869

          k = 0.1271 0.3139 0.0000 (  7263 PWs)   bands (ev):

   -20.2433 -10.0271  -8.2495  -7.5465

          k = 0.2521 1.0597 0.0000 (  7267 PWs)   bands (ev):

   -20.7944  -9.0243  -8.2966  -7.2909

          k = 0.8354 0.4823 0.0000 (  7273 PWs)   bands (ev):

   -21.2972  -8.9746  -7.6344  -6.6198

          k = 0.3354 0.2418 0.0000 (  7274 PWs)   bands (ev):

   -19.5977 -11.6336  -8.2243  -6.6475

          k = 0.7521 0.8191 0.0000 (  7265 PWs)   bands (ev):

   -20.1807 -10.3325  -8.0575  -7.4598

          k = 0.7104 0.7469 0.0000 (  7245 PWs)   bands (ev):

   -20.2744 -10.3146  -7.6921  -7.5878

          k = 0.3354 0.3380 0.0000 (  7251 PWs)   bands (ev):

   -19.0472 -12.2428  -9.1148  -5.8617

          k = 0.7521 0.9153 0.0000 (  7253 PWs)   bands (ev):

   -19.5232 -11.1903  -9.1814  -6.5476

          k = 0.6271 0.6988 0.0000 (  7267 PWs)   bands (ev):

   -19.7792 -11.1629  -8.3300  -6.9036

          k = 0.3354 0.4342 0.0000 (  7253 PWs)   bands (ev):

   -18.4905 -12.5168 -10.2793  -5.0328

          k = 0.7521 1.0116 0.0000 (  7258 PWs)   bands (ev):

   -18.8050 -11.9523 -10.2311  -5.5139

          k = 0.5437 0.6507 0.0000 (  7236 PWs)   bands (ev):

   -19.1435 -11.8392  -9.4396  -6.0056

          k = 0.3354 0.5304 0.0000 (  7190 PWs)   bands (ev):

   -18.1243 -12.4110 -11.2605  -4.4521

          k = 0.7521 1.1078 0.0000 (  7217 PWs)   bands (ev):

   -18.2792 -12.5069 -10.8014  -4.7027

          k = 0.4604 0.6026 0.0000 (  7242 PWs)   bands (ev):

   -18.5090 -12.2613 -10.5743  -5.0661

          k = 0.3354 0.6267 0.0000 (  7190 PWs)   bands (ev):

   -18.1294 -12.4164 -11.2433  -4.4605

          k = 0.7521 1.2040 0.0000 (  7219 PWs)   bands (ev):

   -18.2870 -12.4985 -10.7943  -4.7153

          k = 0.3771 0.5545 0.0000 (  7188 PWs)   bands (ev):

   -18.1311 -12.4092 -11.2482  -4.4635

          k = 0.3354 0.7229 0.0000 (  7257 PWs)   bands (ev):

   -18.5030 -12.5148 -10.2506  -5.0519

          k = 0.7521 1.3002 0.0000 (  7258 PWs)   bands (ev):

   -18.8219 -11.9348 -10.2097  -5.5390

          k = 0.2937 0.5064 0.0000 (  7206 PWs)   bands (ev):

   -18.2497 -12.3726 -11.0347  -4.6581

          k = 0.3354 0.8191 0.0000 (  7251 PWs)   bands (ev):

   -19.0617 -12.2312  -9.0876  -5.8826

          k = 0.7521 1.3965 0.0000 (  7251 PWs)   bands (ev):

   -19.5410 -11.1701  -9.1522  -6.5726

          k = 0.2104 0.4583 0.0000 (  7252 PWs)   bands (ev):

   -18.7809 -12.1061 -10.0905  -5.4765

          k = 0.3354 0.9153 0.0000 (  7276 PWs)   bands (ev):

   -19.6101 -11.6152  -8.2092  -6.6649

          k = 0.7521 1.4927 0.0000 (  7265 PWs)   bands (ev):

   -20.1950 -10.3100  -8.0332  -7.4796

          k = 0.1271 0.4102 0.0000 (  7260 PWs)   bands (ev):

   -19.4405 -11.5624  -8.9085  -6.4287

          k = 0.3354 1.0116 0.0000 (  7279 PWs)   bands (ev):

   -20.0248 -10.7951  -7.9624  -7.2441

          k = 0.7521 0.4342 0.0000 (  7263 PWs)   bands (ev):

   -20.6694  -9.3894  -8.1270  -7.3481

          k = 0.4187 0.2899 0.0000 (  7266 PWs)   bands (ev):

   -18.8681 -12.8806  -8.5659  -5.5866

          k = 0.6687 0.8672 0.0000 (  7260 PWs)   bands (ev):

   -19.3587 -11.9190  -8.6101  -6.3095

          k = 0.6271 0.7951 0.0000 (  7279 PWs)   bands (ev):

   -19.4427 -11.9627  -8.2219  -6.4267

          k = 0.4187 0.3861 0.0000 (  7250 PWs)   bands (ev):

   -18.5493 -13.0210  -9.3351  -5.1071

          k = 0.6687 0.9634 0.0000 (  7259 PWs)   bands (ev):

   -18.7757 -12.3880  -9.7028  -5.4638

          k = 0.5437 0.7469 0.0000 (  7270 PWs)   bands (ev):

   -18.9926 -12.5547  -8.7555  -5.7765

          k = 0.4187 0.4823 0.0000 (  7248 PWs)   bands (ev):

   -18.3375 -12.7241 -10.3719  -4.7896

          k = 0.6687 1.0597 0.0000 (  7219 PWs)   bands (ev):

   -18.2756 -12.4854 -10.8371  -4.6973

          k = 0.4604 0.6988 0.0000 (  7254 PWs)   bands (ev):

   -18.5305 -12.7840  -9.7802  -5.0868

          k = 0.4187 0.5785 0.0000 (  7206 PWs)   bands (ev):

   -18.2686 -12.3658 -11.0010  -4.6885

          k = 0.6687 1.1559 0.0000 (  7188 PWs)   bands (ev):

   -18.0750 -12.3432 -11.4420  -4.3704

          k = 0.3771 0.6507 0.0000 (  7240 PWs)   bands (ev):

   -18.2033 -12.5896 -10.8692  -4.5782

          k = 0.4187 0.6748 0.0000 (  7252 PWs)   bands (ev):

   -18.3411 -12.7356 -10.3470  -4.7949

          k = 0.6687 1.2521 0.0000 (  7217 PWs)   bands (ev):

   -18.2852 -12.4877 -10.8121  -4.7127

          k = 0.2937 0.6026 0.0000 (  7188 PWs)   bands (ev):

   -18.1258 -12.4044 -11.2650  -4.4548

          k = 0.4187 0.7710 0.0000 (  7250 PWs)   bands (ev):

   -18.5562 -13.0230  -9.3109  -5.1176

          k = 0.6687 1.3483 0.0000 (  7257 PWs)   bands (ev):

   -18.7900 -12.3805  -9.6733  -5.4851

          k = 0.2104 0.5545 0.0000 (  7250 PWs)   bands (ev):

   -18.3248 -12.7249 -10.4021  -4.7695

          k = 0.4187 0.8672 0.0000 (  7268 PWs)   bands (ev):

   -18.8767 -12.8716  -8.5539  -5.5993

          k = 0.6687 1.4446 0.0000 (  7258 PWs)   bands (ev):

   -19.3727 -11.9034  -8.5873  -6.3294

          k = 0.1271 0.5064 0.0000 (  7257 PWs)   bands (ev):

   -18.7310 -12.7328  -9.2833  -5.3894

          k = 0.4187 0.9634 0.0000 (  7284 PWs)   bands (ev):

   -19.2046 -12.3255  -8.4337  -6.0848

          k = 0.6687 0.3861 0.0000 (  7253 PWs)   bands (ev):

   -19.8706 -11.1584  -7.9773  -7.0296

          k = 0.5021 0.3380 0.0000 (  7260 PWs)   bands (ev):

   -18.6909 -13.1555  -8.6302  -5.3149

          k = 0.5854 0.9153 0.0000 (  7252 PWs)   bands (ev):

   -18.7115 -12.9812  -8.9015  -5.3524

          k = 0.5437 0.8432 0.0000 (  7270 PWs)   bands (ev):

   -18.7845 -13.0570  -8.5050  -5.4577

          k = 0.5021 0.4342 0.0000 (  7261 PWs)   bands (ev):

   -18.7560 -12.7066  -9.2514  -5.4272

          k = 0.5854 1.0116 0.0000 (  7258 PWs)   bands (ev):

   -18.4204 -12.9140  -9.8769  -4.9131

          k = 0.4604 0.7951 0.0000 (  7256 PWs)   bands (ev):

   -18.6121 -13.1499  -8.9041  -5.1970

          k = 0.5021 0.5304 0.0000 (  7246 PWs)   bands (ev):

   -18.8137 -12.0725 -10.0487  -5.5252

          k = 0.5854 1.1078 0.0000 (  7217 PWs)   bands (ev):

   -18.2679 -12.4933 -10.8446  -4.6849

          k = 0.3771 0.7469 0.0000 (  7258 PWs)   bands (ev):

   -18.5214 -12.7974  -9.7844  -5.0725

          k = 0.5021 0.6267 0.0000 (  7244 PWs)   bands (ev):

   -18.8129 -12.0854 -10.0334  -5.5237

          k = 0.5854 1.2040 0.0000 (  7219 PWs)   bands (ev):

   -18.2698 -12.5040 -10.8266  -4.6877

          k = 0.2937 0.6988 0.0000 (  7238 PWs)   bands (ev):

   -18.4954 -12.2757 -10.5887  -5.0450

          k = 0.5021 0.7229 0.0000 (  7261 PWs)   bands (ev):

   -18.7542 -12.7218  -9.2311  -5.4241

          k = 0.5854 1.3002 0.0000 (  7258 PWs)   bands (ev):

   -18.4261 -12.9210  -9.8504  -4.9218

          k = 0.2104 0.6507 0.0000 (  7251 PWs)   bands (ev):

   -18.5018 -12.4866 -10.2926  -5.0508

          k = 0.5021 0.8191 0.0000 (  7262 PWs)   bands (ev):

   -18.6898 -13.1616  -8.6217  -5.3130

          k = 0.5854 1.3965 0.0000 (  7254 PWs)   bands (ev):

   -18.7199 -12.9771  -8.8816  -5.3651

          k = 0.1271 0.6026 0.0000 (  7246 PWs)   bands (ev):

   -18.5519 -13.0046  -9.3560  -5.1117

          k = 0.5021 0.9153 0.0000 (  7262 PWs)   bands (ev):

   -18.6812 -13.1657  -8.6429  -5.2999

          k = 0.5854 0.3380 0.0000 (  7267 PWs)   bands (ev):

   -19.0720 -12.5981  -8.3933  -5.8895

          k = 0.5854 0.3861 0.0000 (  7280 PWs)   bands (ev):

   -19.2349 -12.2787  -8.4108  -6.1287

          k = 0.5021 0.9634 0.0000 (  7250 PWs)   bands (ev):

   -18.7017 -12.9962  -8.9051  -5.3373

          k = 0.4604 0.8913 0.0000 (  7268 PWs)   bands (ev):

   -18.7746 -13.0724  -8.5086  -5.4424

          k = 0.5854 0.4823 0.0000 (  7262 PWs)   bands (ev):

   -19.4767 -11.5098  -8.8672  -6.4800

          k = 0.5021 1.0597 0.0000 (  7255 PWs)   bands (ev):

   -18.7601 -12.4116  -9.7113  -5.4403

          k = 0.3771 0.8432 0.0000 (  7268 PWs)   bands (ev):

   -18.9761 -12.5816  -8.7627  -5.7519

          k = 0.5854 0.5785 0.0000 (  7258 PWs)   bands (ev):

   -19.5620 -11.0265  -9.2807  -6.6029

          k = 0.5021 1.1559 0.0000 (  7256 PWs)   bands (ev):

   -18.7882 -11.9690 -10.2530  -5.4890

          k = 0.2937 0.7951 0.0000 (  7239 PWs)   bands (ev):

   -19.1245 -11.8698  -9.4522  -5.9780

          k = 0.5854 0.6748 0.0000 (  7262 PWs)   bands (ev):

   -19.4725 -11.5289  -8.8521  -6.4738

          k = 0.5021 1.2521 0.0000 (  7257 PWs)   bands (ev):

   -18.7588 -12.4281  -9.6901  -5.4381

          k = 0.2104 0.7469 0.0000 (  7256 PWs)   bands (ev):

   -19.1600 -11.5841  -9.7470  -6.0318

          k = 0.5854 0.7710 0.0000 (  7278 PWs)   bands (ev):

   -19.2273 -12.2961  -8.4058  -6.1176

          k = 0.5021 1.3483 0.0000 (  7250 PWs)   bands (ev):

   -18.7004 -13.0070  -8.8889  -5.3350

          k = 0.1271 0.6988 0.0000 (  7251 PWs)   bands (ev):

   -19.0691 -12.1947  -9.1236  -5.8939

          k = 0.5854 0.8672 0.0000 (  7272 PWs)   bands (ev):

   -18.8869 -12.8464  -8.5679  -5.6150

          k = 0.5021 0.2899 0.0000 (  7272 PWs)   bands (ev):

   -18.6767 -13.2226  -8.5421  -5.2906

          k = 0.6687 0.4342 0.0000 (  7275 PWs)   bands (ev):

   -20.0579 -10.7313  -7.9310  -7.2899

          k = 0.4187 1.0116 0.0000 (  7262 PWs)   bands (ev):

   -19.3388 -11.9538  -8.6207  -6.2810

          k = 0.3771 0.9394 0.0000 (  7281 PWs)   bands (ev):

   -19.4225 -11.9987  -8.2321  -6.3979

          k = 0.6687 0.5304 0.0000 (  7265 PWs)   bands (ev):

   -20.2782  -9.9624  -8.2023  -7.5943

          k = 0.4187 1.1078 0.0000 (  7253 PWs)   bands (ev):

   -19.5034 -11.2236  -9.1987  -6.5196

          k = 0.2937 0.8913 0.0000 (  7267 PWs)   bands (ev):

   -19.7585 -11.2028  -8.3436  -6.8746

          k = 0.6687 0.6267 0.0000 (  7265 PWs)   bands (ev):

   -20.2754  -9.9762  -8.1944  -7.5904

          k = 0.4187 1.2040 0.0000 (  7247 PWs)   bands (ev):

   -19.5012 -11.2373  -9.1864  -6.5165

          k = 0.2104 0.8432 0.0000 (  7256 PWs)   bands (ev):

   -19.9152 -10.5283  -8.7752  -7.0949

          k = 0.6687 0.7229 0.0000 (  7271 PWs)   bands (ev):

   -20.0497 -10.7528  -7.9294  -7.2786

          k = 0.4187 1.3002 0.0000 (  7258 PWs)   bands (ev):

   -19.3329 -11.9731  -8.6084  -6.2723

          k = 0.1271 0.7951 0.0000 (  7259 PWs)   bands (ev):

   -19.8691 -10.7731  -8.5961  -7.0302

          k = 0.6687 0.8191 0.0000 (  7270 PWs)   bands (ev):

   -19.6267 -11.5750  -8.2162  -6.6884

          k = 0.4187 0.2418 0.0000 (  7271 PWs)   bands (ev):

   -19.0383 -12.6532  -8.4073  -5.8398

          k = 0.7521 0.4823 0.0000 (  7261 PWs)   bands (ev):

   -20.8223  -8.9560  -8.3344  -7.2549

          k = 0.3354 1.0597 0.0000 (  7267 PWs)   bands (ev):

   -20.1608 -10.3747  -8.0740  -7.4325

          k = 0.2937 0.9875 0.0000 (  7245 PWs)   bands (ev):

   -20.2543 -10.3587  -7.7077  -7.5602

          k = 0.7521 0.5785 0.0000 (  7299 PWs)   bands (ev):

   -20.9444  -8.4996  -8.4724  -7.3261

          k = 0.3354 1.1559 0.0000 (  7264 PWs)   bands (ev):

   -20.2701  -9.8838  -8.3398  -7.5835

          k = 0.2104 0.9394 0.0000 (  7260 PWs)   bands (ev):

   -20.5539  -9.5124  -7.9703  -7.6906

          k = 0.7521 0.6748 0.0000 (  7260 PWs)   bands (ev):

   -20.8161  -8.9762  -8.3260  -7.2560

          k = 0.3354 1.2521 0.0000 (  7269 PWs)   bands (ev):

   -20.1553 -10.3946  -8.0660  -7.4249

          k = 0.1271 0.8913 0.0000 (  7280 PWs)   bands (ev):

   -20.6200  -9.2191  -8.0604  -7.8066

          k = 0.7521 0.7710 0.0000 (  7274 PWs)   bands (ev):

   -20.4469  -9.8739  -7.8241  -7.6288

          k = 0.3354 0.1936 0.0000 (  7257 PWs)   bands (ev):

   -19.8287 -11.2409  -8.0037  -6.9712

          k = 0.8354 0.5304 0.0000 (  7282 PWs)   bands (ev):

   -21.3938  -9.1043  -7.2940  -6.5145

          k = 0.2521 1.1078 0.0000 (  7274 PWs)   bands (ev):

   -20.8863  -8.6795  -8.4211  -7.3299

          k = 0.2104 1.0356 0.0000 (  7285 PWs)   bands (ev):

   -20.9865  -8.5563  -8.5554  -7.0137

          k = 0.8354 0.6267 0.0000 (  7286 PWs)   bands (ev):

   -21.3906  -9.0999  -7.3070  -6.5167

          k = 0.2521 1.2040 0.0000 (  7276 PWs)   bands (ev):

   -20.8832  -8.6930  -8.4169  -7.3267

          k = 0.1271 0.9875 0.0000 (  7275 PWs)   bands (ev):

   -21.1849  -8.8237  -7.8769  -6.9025

          k = 0.8354 0.7229 0.0000 (  7262 PWs)   bands (ev):

   -21.1269  -8.7457  -8.1128  -6.8979

          k = 0.2521 0.1455 0.0000 (  7267 PWs)   bands (ev):

   -20.6329  -9.4797  -8.0774  -7.3830

          k = 0.9187 0.5785 0.0000 (  7281 PWs)   bands (ev):

   -21.7200  -9.5410  -6.1400  -5.9432

          k = 0.1687 1.1559 0.0000 (  7283 PWs)   bands (ev):

   -21.4055  -9.1199  -7.2213  -6.5374

          k = 0.1271 1.0837 0.0000 (  7281 PWs)   bands (ev):

   -21.5096  -9.2595  -6.9275  -6.3027

          k = 0.9187 0.6748 0.0000 (  7267 PWs)   bands (ev):

   -21.5827  -9.3574  -6.6484  -6.2020

          k = 0.1687 0.0974 0.0000 (  7277 PWs)   bands (ev):

   -21.2712  -8.9397  -7.7160  -6.6556

          k = 1.0021 0.6267 0.0000 (  7273 PWs)   bands (ev):

   -21.7807  -9.6221  -5.8994  -5.8220

          k = 0.0854 0.0493 0.0000 (  7283 PWs)   bands (ev):

   -21.6748  -9.4805  -6.3213  -6.0216

          k = 0.0437 1.1318 0.0000 (  7273 PWs)   bands (ev):

   -21.7807  -9.6221  -5.8994  -5.8220

     Writing output data file BN.save/
 
     init_run     :      0.34s CPU      0.62s WALL (       1 calls)
     electrons    :     93.63s CPU     96.89s WALL (       1 calls)

     Called by init_run:
     wfcinit      :      0.00s CPU      0.00s WALL (       1 calls)
     wfcinit:atom :      1.14s CPU      1.50s WALL (     372 calls)
     wfcinit:wfcr :     31.37s CPU     31.99s WALL (     372 calls)
     potinit      :      0.01s CPU      0.03s WALL (       1 calls)
     hinit0       :      0.28s CPU      0.53s WALL (       1 calls)

     Called by electrons:
     c_bands      :     93.63s CPU     96.41s WALL (       1 calls)
     v_of_rho     :      0.01s CPU      0.01s WALL (       1 calls)
     v_h          :      0.00s CPU      0.00s WALL (       1 calls)
     v_xc         :      0.00s CPU      0.00s WALL (       1 calls)

     Called by c_bands:
     init_us_2    :      0.42s CPU      0.45s WALL (     372 calls)
     cegterg      :     56.01s CPU     57.30s WALL (     372 calls)

     Called by sum_band:

     Called by *egterg:
     h_psi        :     80.64s CPU     82.15s WALL (    5825 calls)
     g_psi        :      0.36s CPU      0.39s WALL (    5081 calls)
     cdiaghg      :      0.42s CPU      0.48s WALL (    5453 calls)
     cegterg:over :      2.06s CPU      2.12s WALL (    5081 calls)
     cegterg:upda :      1.36s CPU      1.54s WALL (    5081 calls)
     cegterg:last :      0.60s CPU      0.61s WALL (    1623 calls)

     Called by h_psi:
     h_psi:pot    :     79.88s CPU     80.99s WALL (    5825 calls)
     h_psi:calbec :      2.26s CPU      2.37s WALL (    5825 calls)
     vloc_psi     :     75.39s CPU     76.35s WALL (    5825 calls)
     add_vuspsi   :      2.17s CPU      2.21s WALL (    5825 calls)

     General routines
     calbec       :      2.22s CPU      2.34s WALL (    5825 calls)
     fft          :      0.00s CPU      0.25s WALL (       4 calls)
     fftw         :     63.20s CPU     63.95s WALL (   62438 calls)
     davcio       :      0.07s CPU      0.18s WALL (     744 calls)
 
     Parallel routines
 
     PWSCF        :   1m34.46s CPU   1m41.12s WALL

 
   This run was terminated on:  17:24:54   3Jul2020            

=------------------------------------------------------------------------------=
   JOB DONE.
=------------------------------------------------------------------------------=
