
     Program PWSCF v.6.4.1 starts on  1Jul2020 at  1:39:15 

     This program is part of the open-source Quantum ESPRESSO suite
     for quantum simulation of materials; please cite
         "P. Giannozzi et al., J. Phys.:Condens. Matter 21 395502 (2009);
         "P. Giannozzi et al., J. Phys.:Condens. Matter 29 465901 (2017);
          URL http://www.quantum-espresso.org", 
     in publications or presentations arising from this work. More details at
     http://www.quantum-espresso.org/quote

     Parallel version (MPI), running on     2 processors

     MPI processes distributed on     1 nodes
     K-points division:     npool     =       2
     Waiting for input...
     Reading input from standard input
     Message from routine read_cards :
     DEPRECATED: no units specified in CELL_PARAMETERS card
Warning: card &IONS ignored
Warning: card / ignored
Warning: card &CELL ignored
Warning: card / ignored

     Current dimensions of program PWSCF are:
     Max number of different atomic species (ntypx) = 10
     Max number of k-points (npk) =  40000
     Max angular momentum in pseudopotentials (lmaxx) =  3

     Atomic positions and unit cell read from directory:
     ./BN.save/
 
     Message from routine readpp:
     file ./BN.save/b.cpi.UPF not found
     Message from routine readpp:
     file ./BN.save/n.cpi.UPF not found
               file b.cpi.UPF: wavefunction(s)  3d 4f renormalized
               file n.cpi.UPF: wavefunction(s)  3d 4f renormalized

     Subspace diagonalization in iterative solution of the eigenvalue problem:
     a serial algorithm will be used

     Message from routine setup:
     DEPRECATED: symmetry with ibrav=0, use correct ibrav instead
 
     G-vector sticks info
     --------------------
     sticks:   dense  smooth     PW     G-vecs:    dense   smooth      PW
     Sum         433     433    187                58197    58197   15845
 


     bravais-lattice index     =            0
     lattice parameter (alat)  =       4.7319  a.u.
     unit-cell volume          =     734.0406 (a.u.)^3
     number of atoms/cell      =            2
     number of atomic types    =            2
     number of electrons       =         8.00
     number of Kohn-Sham states=            4
     kinetic-energy cutoff     =      70.0000  Ry
     charge density cutoff     =     280.0000  Ry
     Exchange-correlation      = SLA  PZ   NOGX NOGC ( 1  1  0  0 0 0)

     celldm(1)=   4.731874  celldm(2)=   0.000000  celldm(3)=   0.000000
     celldm(4)=   0.000000  celldm(5)=   0.000000  celldm(6)=   0.000000

     crystal axes: (cart. coord. in units of alat)
               a(1) = (   1.000000   0.000000   0.000000 )  
               a(2) = (  -0.500000   0.866025   0.000000 )  
               a(3) = (   0.000000   0.000000   8.000000 )  

     reciprocal axes: (cart. coord. in units 2 pi/alat)
               b(1) = (  1.000000  0.577350  0.000000 )  
               b(2) = (  0.000000  1.154701  0.000000 )  
               b(3) = (  0.000000  0.000000  0.125000 )  


     PseudoPot. # 1 for B  read from file:
     ./b.cpi.UPF
     MD5 check sum: aadced629ac320abbac2d4088521b25e
     Pseudo is Norm-conserving + core correction, Zval =  3.0
     Generated by new atomic code, or converted to UPF format
     Using radial grid of  453 points,  3 beta functions with: 
                l(1) =   0
                l(2) =   1
                l(3) =   2

     PseudoPot. # 2 for N  read from file:
     ./n.cpi.UPF
     MD5 check sum: ff6dad263d6aed986b71703111ab3f52
     Pseudo is Norm-conserving, Zval =  5.0
     Generated by new atomic code, or converted to UPF format
     Using radial grid of  467 points,  3 beta functions with: 
                l(1) =   0
                l(2) =   1
                l(3) =   2

     atomic species   valence    mass     pseudopotential
        B              3.00    10.81100     B ( 1.00)
        N              5.00    14.00700     N ( 1.00)

     12 Sym. Ops. (no inversion) found


                                    s                        frac. trans.

      isym =  1     identity                                     

 cryst.   s( 1) = (     1          0          0      )
                  (     0          1          0      )
                  (     0          0          1      )

 cart.    s( 1) = (  1.0000000  0.0000000  0.0000000 )
                  (  0.0000000  1.0000000  0.0000000 )
                  (  0.0000000  0.0000000  1.0000000 )


      isym =  2     180 deg rotation - cart. axis [0,1,0]        

 cryst.   s( 2) = (    -1          0          0      )
                  (     1          1          0      )
                  (     0          0         -1      )

 cart.    s( 2) = ( -1.0000000  0.0000000  0.0000000 )
                  (  0.0000000  1.0000000  0.0000000 )
                  (  0.0000000  0.0000000 -1.0000000 )


      isym =  3     120 deg rotation - cryst. axis [0,0,1]       

 cryst.   s( 3) = (     0          1          0      )
                  (    -1         -1          0      )
                  (     0          0          1      )

 cart.    s( 3) = ( -0.5000000 -0.8660254  0.0000000 )
                  (  0.8660254 -0.5000000  0.0000000 )
                  (  0.0000000  0.0000000  1.0000000 )


      isym =  4     120 deg rotation - cryst. axis [0,0,-1]      

 cryst.   s( 4) = (    -1         -1          0      )
                  (     1          0          0      )
                  (     0          0          1      )

 cart.    s( 4) = ( -0.5000000  0.8660254  0.0000000 )
                  ( -0.8660254 -0.5000000  0.0000000 )
                  (  0.0000000  0.0000000  1.0000000 )


      isym =  5     180 deg rotation - cryst. axis [1,-1,0]      

 cryst.   s( 5) = (     0         -1          0      )
                  (    -1          0          0      )
                  (     0          0         -1      )

 cart.    s( 5) = (  0.5000000 -0.8660254  0.0000000 )
                  ( -0.8660254 -0.5000000  0.0000000 )
                  (  0.0000000  0.0000000 -1.0000000 )


      isym =  6     180 deg rotation - cryst. axis [2,1,0]       

 cryst.   s( 6) = (     1          1          0      )
                  (     0         -1          0      )
                  (     0          0         -1      )

 cart.    s( 6) = (  0.5000000  0.8660254  0.0000000 )
                  (  0.8660254 -0.5000000  0.0000000 )
                  (  0.0000000  0.0000000 -1.0000000 )


      isym =  7     inv. 180 deg rotation - cart. axis [0,0,1]   

 cryst.   s( 7) = (     1          0          0      )
                  (     0          1          0      )
                  (     0          0         -1      )

 cart.    s( 7) = (  1.0000000  0.0000000  0.0000000 )
                  (  0.0000000  1.0000000  0.0000000 )
                  (  0.0000000  0.0000000 -1.0000000 )


      isym =  8     inv. 180 deg rotation - cart. axis [1,0,0]   

 cryst.   s( 8) = (    -1          0          0      )
                  (     1          1          0      )
                  (     0          0          1      )

 cart.    s( 8) = ( -1.0000000  0.0000000  0.0000000 )
                  (  0.0000000  1.0000000  0.0000000 )
                  (  0.0000000  0.0000000  1.0000000 )


      isym =  9     inv.  60 deg rotation - cryst. axis [0,0,1]  

 cryst.   s( 9) = (    -1         -1          0      )
                  (     1          0          0      )
                  (     0          0         -1      )

 cart.    s( 9) = ( -0.5000000  0.8660254  0.0000000 )
                  ( -0.8660254 -0.5000000  0.0000000 )
                  (  0.0000000  0.0000000 -1.0000000 )


      isym = 10     inv.  60 deg rotation - cryst. axis [0,0,-1] 

 cryst.   s(10) = (     0          1          0      )
                  (    -1         -1          0      )
                  (     0          0         -1      )

 cart.    s(10) = ( -0.5000000 -0.8660254  0.0000000 )
                  (  0.8660254 -0.5000000  0.0000000 )
                  (  0.0000000  0.0000000 -1.0000000 )


      isym = 11     inv. 180 deg rotation - cryst. axis [0,1,0]  

 cryst.   s(11) = (     1          1          0      )
                  (     0         -1          0      )
                  (     0          0          1      )

 cart.    s(11) = (  0.5000000  0.8660254  0.0000000 )
                  (  0.8660254 -0.5000000  0.0000000 )
                  (  0.0000000  0.0000000  1.0000000 )


      isym = 12     inv. 180 deg rotation - cryst. axis [1,1,0]  

 cryst.   s(12) = (     0         -1          0      )
                  (    -1          0          0      )
                  (     0          0          1      )

 cart.    s(12) = (  0.5000000 -0.8660254  0.0000000 )
                  ( -0.8660254 -0.5000000  0.0000000 )
                  (  0.0000000  0.0000000  1.0000000 )


   Cartesian axes

     site n.     atom                  positions (alat units)
         1           B   tau(   1) = (  -0.0000000   0.5773503   4.0000000  )
         2           N   tau(   2) = (   0.5000000   0.2886751   4.0000000  )

   Crystallographic axes

     site n.     atom                  positions (cryst. coord.)
         1           B   tau(   1) = (  0.3333333  0.6666667  0.5000000  )
         2           N   tau(   2) = (  0.6666667  0.3333333  0.5000000  )

     number of k points=   222
                       cart. coord. in units 2pi/alat
        k(    1) = (   0.0426667   0.0246336   0.0000000), wk =   0.0046296
        k(    2) = (   0.0426667   0.0727461   0.0000000), wk =   0.0092593
        k(    3) = (   0.0426667   0.1689712   0.0000000), wk =   0.0092593
        k(    4) = (   0.0426667   0.2651962   0.0000000), wk =   0.0092593
        k(    5) = (   0.0426667   0.3614213   0.0000000), wk =   0.0092593
        k(    6) = (   0.0426667   0.4576463   0.0000000), wk =   0.0092593
        k(    7) = (   0.0426667   0.5538714   0.0000000), wk =   0.0092593
        k(    8) = (   0.0426667   0.6500964   0.0000000), wk =   0.0092593
        k(    9) = (   0.0426667   0.7463214   0.0000000), wk =   0.0092593
        k(   10) = (   0.0426667   0.8425465   0.0000000), wk =   0.0092593
        k(   11) = (   0.0426667   0.9387715   0.0000000), wk =   0.0092593
        k(   12) = (   0.0426667   1.0349966   0.0000000), wk =   0.0092593
        k(   13) = (   0.0426667   1.1312216   0.0000000), wk =   0.0092593
        k(   14) = (   0.0843333   0.0968024   0.0000000), wk =   0.0092593
        k(   15) = (   0.0843333   0.1930274   0.0000000), wk =   0.0092593
        k(   16) = (   0.0843333   0.2892525   0.0000000), wk =   0.0092593
        k(   17) = (   0.0843333   0.3854775   0.0000000), wk =   0.0092593
        k(   18) = (   0.0843333   0.4817026   0.0000000), wk =   0.0092593
        k(   19) = (   0.0843333   0.5779276   0.0000000), wk =   0.0092593
        k(   20) = (   0.0843333   0.6741527   0.0000000), wk =   0.0092593
        k(   21) = (   0.0843333   0.7703777   0.0000000), wk =   0.0092593
        k(   22) = (   0.0843333   0.8666028   0.0000000), wk =   0.0092593
        k(   23) = (   0.0843333   0.9628278   0.0000000), wk =   0.0092593
        k(   24) = (   0.0843333   1.0590528   0.0000000), wk =   0.0092593
        k(   25) = (   0.1260000   0.0727461   0.0000000), wk =   0.0046296
        k(   26) = (   0.1260000   0.1208587   0.0000000), wk =   0.0092593
        k(   27) = (   0.1260000   0.2170837   0.0000000), wk =   0.0092593
        k(   28) = (   0.1260000   0.3133087   0.0000000), wk =   0.0092593
        k(   29) = (   0.1260000   0.4095338   0.0000000), wk =   0.0092593
        k(   30) = (   0.1260000   0.5057588   0.0000000), wk =   0.0092593
        k(   31) = (   0.1260000   0.6019839   0.0000000), wk =   0.0092593
        k(   32) = (   0.1260000   0.6982089   0.0000000), wk =   0.0092593
        k(   33) = (   0.1260000   0.7944340   0.0000000), wk =   0.0092593
        k(   34) = (   0.1260000   0.8906590   0.0000000), wk =   0.0092593
        k(   35) = (   0.1260000   0.9868841   0.0000000), wk =   0.0092593
        k(   36) = (   0.1260000   1.0831091   0.0000000), wk =   0.0092593
        k(   37) = (   0.1260000   1.1312216   0.0000000), wk =   0.0092593
        k(   38) = (   0.1676667   0.1449149   0.0000000), wk =   0.0092593
        k(   39) = (   0.1676667   0.2411400   0.0000000), wk =   0.0092593
        k(   40) = (   0.1676667   0.3373650   0.0000000), wk =   0.0092593
        k(   41) = (   0.1676667   0.4335901   0.0000000), wk =   0.0092593
        k(   42) = (   0.1676667   0.5298151   0.0000000), wk =   0.0092593
        k(   43) = (   0.1676667   0.6260401   0.0000000), wk =   0.0092593
        k(   44) = (   0.1676667   0.7222652   0.0000000), wk =   0.0092593
        k(   45) = (   0.1676667   0.8184902   0.0000000), wk =   0.0092593
        k(   46) = (   0.1676667   0.9147153   0.0000000), wk =   0.0092593
        k(   47) = (   0.1676667   1.0109403   0.0000000), wk =   0.0092593
        k(   48) = (   0.2093333   0.1208587   0.0000000), wk =   0.0046296
        k(   49) = (   0.2093333   0.1689712   0.0000000), wk =   0.0092593
        k(   50) = (   0.2093333   0.2651962   0.0000000), wk =   0.0092593
        k(   51) = (   0.2093333   0.3614213   0.0000000), wk =   0.0092593
        k(   52) = (   0.2093333   0.4576463   0.0000000), wk =   0.0092593
        k(   53) = (   0.2093333   0.5538714   0.0000000), wk =   0.0092593
        k(   54) = (   0.2093333   0.6500964   0.0000000), wk =   0.0092593
        k(   55) = (   0.2093333   0.7463214   0.0000000), wk =   0.0092593
        k(   56) = (   0.2093333   0.8425465   0.0000000), wk =   0.0092593
        k(   57) = (   0.2093333   0.9387715   0.0000000), wk =   0.0092593
        k(   58) = (   0.2093333   1.0349966   0.0000000), wk =   0.0092593
        k(   59) = (   0.2093333   1.0831091   0.0000000), wk =   0.0092593
        k(   60) = (   0.2093333   1.1793342   0.0000000), wk =   0.0092593
        k(   61) = (   0.2510000   0.1930274   0.0000000), wk =   0.0092593
        k(   62) = (   0.2510000   0.2892525   0.0000000), wk =   0.0092593
        k(   63) = (   0.2510000   0.3854775   0.0000000), wk =   0.0092593
        k(   64) = (   0.2510000   0.4817026   0.0000000), wk =   0.0092593
        k(   65) = (   0.2510000   0.5779276   0.0000000), wk =   0.0092593
        k(   66) = (   0.2510000   0.6741527   0.0000000), wk =   0.0092593
        k(   67) = (   0.2510000   0.7703777   0.0000000), wk =   0.0092593
        k(   68) = (   0.2510000   0.8666028   0.0000000), wk =   0.0092593
        k(   69) = (   0.2510000   0.9628278   0.0000000), wk =   0.0092593
        k(   70) = (   0.2926667   0.1689712   0.0000000), wk =   0.0046296
        k(   71) = (   0.2926667   0.2170837   0.0000000), wk =   0.0092593
        k(   72) = (   0.2926667   0.3133087   0.0000000), wk =   0.0092593
        k(   73) = (   0.2926667   0.4095338   0.0000000), wk =   0.0092593
        k(   74) = (   0.2926667   0.5057588   0.0000000), wk =   0.0092593
        k(   75) = (   0.2926667   0.6019839   0.0000000), wk =   0.0092593
        k(   76) = (   0.2926667   0.6982089   0.0000000), wk =   0.0092593
        k(   77) = (   0.2926667   0.7944340   0.0000000), wk =   0.0092593
        k(   78) = (   0.2926667   0.8906590   0.0000000), wk =   0.0092593
        k(   79) = (   0.2926667   0.9868841   0.0000000), wk =   0.0092593
        k(   80) = (   0.2926667   1.0349966   0.0000000), wk =   0.0092593
        k(   81) = (   0.2926667   1.1312216   0.0000000), wk =   0.0092593
        k(   82) = (   0.2926667   1.2274467   0.0000000), wk =   0.0092593
        k(   83) = (   0.3343333   0.2411400   0.0000000), wk =   0.0092593
        k(   84) = (   0.3343333   0.3373650   0.0000000), wk =   0.0092593
        k(   85) = (   0.3343333   0.4335901   0.0000000), wk =   0.0092593
        k(   86) = (   0.3343333   0.5298151   0.0000000), wk =   0.0092593
        k(   87) = (   0.3343333   0.6260401   0.0000000), wk =   0.0092593
        k(   88) = (   0.3343333   0.7222652   0.0000000), wk =   0.0092593
        k(   89) = (   0.3343333   0.8184902   0.0000000), wk =   0.0092593
        k(   90) = (   0.3343333   0.9147153   0.0000000), wk =   0.0092593
        k(   91) = (   0.3760000   0.2170837   0.0000000), wk =   0.0046296
        k(   92) = (   0.3760000   0.2651962   0.0000000), wk =   0.0092593
        k(   93) = (   0.3760000   0.3614213   0.0000000), wk =   0.0092593
        k(   94) = (   0.3760000   0.4576463   0.0000000), wk =   0.0092593
        k(   95) = (   0.3760000   0.5538714   0.0000000), wk =   0.0092593
        k(   96) = (   0.3760000   0.6500964   0.0000000), wk =   0.0092593
        k(   97) = (   0.3760000   0.7463214   0.0000000), wk =   0.0092593
        k(   98) = (   0.3760000   0.8425465   0.0000000), wk =   0.0092593
        k(   99) = (   0.3760000   0.9387715   0.0000000), wk =   0.0092593
        k(  100) = (   0.3760000   0.9868841   0.0000000), wk =   0.0092593
        k(  101) = (   0.3760000   1.0831091   0.0000000), wk =   0.0092593
        k(  102) = (   0.3760000   1.1793341   0.0000000), wk =   0.0092593
        k(  103) = (   0.3760000   1.2755592   0.0000000), wk =   0.0092593
        k(  104) = (   0.4176667   0.2892525   0.0000000), wk =   0.0092593
        k(  105) = (   0.4176667   0.3854775   0.0000000), wk =   0.0092593
        k(  106) = (   0.4176667   0.4817026   0.0000000), wk =   0.0092593
        k(  107) = (   0.4176667   0.5779276   0.0000000), wk =   0.0092593
        k(  108) = (   0.4176667   0.6741527   0.0000000), wk =   0.0092593
        k(  109) = (   0.4176667   0.7703777   0.0000000), wk =   0.0092593
        k(  110) = (   0.4176667   0.8666028   0.0000000), wk =   0.0092593
        k(  111) = (   0.4593333   0.2651962   0.0000000), wk =   0.0046296
        k(  112) = (   0.4593333   0.3133087   0.0000000), wk =   0.0092593
        k(  113) = (   0.4593333   0.4095338   0.0000000), wk =   0.0092593
        k(  114) = (   0.4593333   0.5057588   0.0000000), wk =   0.0092593
        k(  115) = (   0.4593333   0.6019839   0.0000000), wk =   0.0092593
        k(  116) = (   0.4593333   0.6982089   0.0000000), wk =   0.0092593
        k(  117) = (   0.4593333   0.7944340   0.0000000), wk =   0.0092593
        k(  118) = (   0.4593333   0.8906590   0.0000000), wk =   0.0092593
        k(  119) = (   0.4593333   0.9387715   0.0000000), wk =   0.0092593
        k(  120) = (   0.4593333   1.0349966   0.0000000), wk =   0.0092593
        k(  121) = (   0.4593333   1.1312216   0.0000000), wk =   0.0092593
        k(  122) = (   0.4593333   1.2274467   0.0000000), wk =   0.0092593
        k(  123) = (   0.4593333   1.3236717   0.0000000), wk =   0.0092593
        k(  124) = (   0.5010000   0.3373650   0.0000000), wk =   0.0092593
        k(  125) = (   0.5010000   0.4335901   0.0000000), wk =   0.0092593
        k(  126) = (   0.5010000   0.5298151   0.0000000), wk =   0.0092593
        k(  127) = (   0.5010000   0.6260401   0.0000000), wk =   0.0092593
        k(  128) = (   0.5010000   0.7222652   0.0000000), wk =   0.0092593
        k(  129) = (   0.5010000   0.8184902   0.0000000), wk =   0.0092593
        k(  130) = (   0.5426667   0.3133087   0.0000000), wk =   0.0046296
        k(  131) = (   0.5426667   0.3614213   0.0000000), wk =   0.0092593
        k(  132) = (   0.5426667   0.4576463   0.0000000), wk =   0.0092593
        k(  133) = (   0.5426667   0.5538714   0.0000000), wk =   0.0092593
        k(  134) = (   0.5426667   0.6500964   0.0000000), wk =   0.0092593
        k(  135) = (   0.5426667   0.7463214   0.0000000), wk =   0.0092593
        k(  136) = (   0.5426667   0.8425465   0.0000000), wk =   0.0092593
        k(  137) = (   0.5426667   0.8906590   0.0000000), wk =   0.0092593
        k(  138) = (   0.5426667   0.9868841   0.0000000), wk =   0.0092593
        k(  139) = (   0.5426667   1.0831091   0.0000000), wk =   0.0092593
        k(  140) = (   0.5426667   1.1793342   0.0000000), wk =   0.0092593
        k(  141) = (   0.5426667   1.2755592   0.0000000), wk =   0.0092593
        k(  142) = (   0.5426667   1.3717842   0.0000000), wk =   0.0092593
        k(  143) = (   0.5843333   0.3854775   0.0000000), wk =   0.0092593
        k(  144) = (   0.5843333   0.4817026   0.0000000), wk =   0.0092593
        k(  145) = (   0.5843333   0.5779276   0.0000000), wk =   0.0092593
        k(  146) = (   0.5843333   0.6741527   0.0000000), wk =   0.0092593
        k(  147) = (   0.5843333   0.7703777   0.0000000), wk =   0.0092593
        k(  148) = (   0.6260000   0.3614213   0.0000000), wk =   0.0046296
        k(  149) = (   0.6260000   0.4095338   0.0000000), wk =   0.0092593
        k(  150) = (   0.6260000   0.5057588   0.0000000), wk =   0.0092593
        k(  151) = (   0.6260000   0.6019839   0.0000000), wk =   0.0092593
        k(  152) = (   0.6260000   0.6982089   0.0000000), wk =   0.0092593
        k(  153) = (   0.6260000   0.7944340   0.0000000), wk =   0.0092593
        k(  154) = (   0.6260000   0.8425465   0.0000000), wk =   0.0092593
        k(  155) = (   0.6260000   0.9387715   0.0000000), wk =   0.0092593
        k(  156) = (   0.6260000   1.0349966   0.0000000), wk =   0.0092593
        k(  157) = (   0.6260000   1.1312216   0.0000000), wk =   0.0092593
        k(  158) = (   0.6260000   1.2274467   0.0000000), wk =   0.0092593
        k(  159) = (   0.6260000   1.3236717   0.0000000), wk =   0.0092593
        k(  160) = (   0.6260000   1.4198968   0.0000000), wk =   0.0092593
        k(  161) = (   0.6676667   0.4335901   0.0000000), wk =   0.0092593
        k(  162) = (   0.6676667   0.5298151   0.0000000), wk =   0.0092593
        k(  163) = (   0.6676667   0.6260401   0.0000000), wk =   0.0092593
        k(  164) = (   0.6676667   0.7222652   0.0000000), wk =   0.0092593
        k(  165) = (   0.7093333   0.4095338   0.0000000), wk =   0.0046296
        k(  166) = (   0.7093333   0.4576463   0.0000000), wk =   0.0092593
        k(  167) = (   0.7093333   0.5538714   0.0000000), wk =   0.0092593
        k(  168) = (   0.7093333   0.6500964   0.0000000), wk =   0.0092593
        k(  169) = (   0.7093333   0.7463214   0.0000000), wk =   0.0092593
        k(  170) = (   0.7093333   0.7944340   0.0000000), wk =   0.0092593
        k(  171) = (   0.7093333   0.8906590   0.0000000), wk =   0.0092593
        k(  172) = (   0.7093333   0.9868841   0.0000000), wk =   0.0092593
        k(  173) = (   0.7093333   1.0831091   0.0000000), wk =   0.0092593
        k(  174) = (   0.7093333   1.1793342   0.0000000), wk =   0.0092593
        k(  175) = (   0.7093333   1.2755592   0.0000000), wk =   0.0092593
        k(  176) = (   0.7093333   1.3717842   0.0000000), wk =   0.0092593
        k(  177) = (   0.7093333   1.4680093   0.0000000), wk =   0.0092593
        k(  178) = (   0.7510000   0.4817026   0.0000000), wk =   0.0092593
        k(  179) = (   0.7510000   0.5779276   0.0000000), wk =   0.0092593
        k(  180) = (   0.7510000   0.6741527   0.0000000), wk =   0.0092593
        k(  181) = (   0.7926667   0.4576463   0.0000000), wk =   0.0046296
        k(  182) = (   0.7926667   0.5057588   0.0000000), wk =   0.0092593
        k(  183) = (   0.7926667   0.6019839   0.0000000), wk =   0.0092593
        k(  184) = (   0.7926667   0.6982089   0.0000000), wk =   0.0092593
        k(  185) = (   0.7926667   0.7463214   0.0000000), wk =   0.0092593
        k(  186) = (   0.7926667   0.8425465   0.0000000), wk =   0.0092593
        k(  187) = (   0.7926667   0.9387715   0.0000000), wk =   0.0092593
        k(  188) = (   0.7926667   1.0349966   0.0000000), wk =   0.0092593
        k(  189) = (   0.7926667   1.1312216   0.0000000), wk =   0.0092593
        k(  190) = (   0.7926667   1.2274467   0.0000000), wk =   0.0092593
        k(  191) = (   0.7926667   1.3236717   0.0000000), wk =   0.0092593
        k(  192) = (   0.7926667   1.4198968   0.0000000), wk =   0.0092593
        k(  193) = (   0.7926667   1.5161218   0.0000000), wk =   0.0092593
        k(  194) = (   0.8343333   0.5298151   0.0000000), wk =   0.0092593
        k(  195) = (   0.8343333   0.6260401   0.0000000), wk =   0.0092593
        k(  196) = (   0.8760000   0.5057588   0.0000000), wk =   0.0046296
        k(  197) = (   0.8760000   0.5538714   0.0000000), wk =   0.0092593
        k(  198) = (   0.8760000   0.6500964   0.0000000), wk =   0.0092593
        k(  199) = (   0.8760000   0.6982089   0.0000000), wk =   0.0092593
        k(  200) = (   0.8760000   0.7944340   0.0000000), wk =   0.0092593
        k(  201) = (   0.8760000   0.8906590   0.0000000), wk =   0.0092593
        k(  202) = (   0.8760000   0.9868841   0.0000000), wk =   0.0092593
        k(  203) = (   0.8760000   1.0831091   0.0000000), wk =   0.0092593
        k(  204) = (   0.8760000   1.1793341   0.0000000), wk =   0.0092593
        k(  205) = (   0.8760000   1.2755592   0.0000000), wk =   0.0092593
        k(  206) = (   0.8760000   1.3717842   0.0000000), wk =   0.0092593
        k(  207) = (   0.8760000   1.4680093   0.0000000), wk =   0.0092593
        k(  208) = (   0.8760000   1.5642343   0.0000000), wk =   0.0092593
        k(  209) = (   0.9176667   0.5779276   0.0000000), wk =   0.0092593
        k(  210) = (   0.9593333   0.5538714   0.0000000), wk =   0.0046296
        k(  211) = (   0.9593333   0.6019839   0.0000000), wk =   0.0092593
        k(  212) = (   0.9593333   0.6500964   0.0000000), wk =   0.0092593
        k(  213) = (   0.9593333   0.7463214   0.0000000), wk =   0.0092593
        k(  214) = (   0.9593333   0.8425465   0.0000000), wk =   0.0092593
        k(  215) = (   0.9593333   0.9387715   0.0000000), wk =   0.0092593
        k(  216) = (   0.9593333   1.0349966   0.0000000), wk =   0.0092593
        k(  217) = (   0.9593333   1.1312216   0.0000000), wk =   0.0092593
        k(  218) = (   0.9593333   1.2274467   0.0000000), wk =   0.0092593
        k(  219) = (   0.9593333   1.3236717   0.0000000), wk =   0.0092593
        k(  220) = (   0.9593333   1.4198968   0.0000000), wk =   0.0092593
        k(  221) = (   0.9593333   1.5161218   0.0000000), wk =   0.0092593
        k(  222) = (   0.9593333   1.6123469   0.0000000), wk =   0.0092593

                       cryst. coord.
        k(    1) = (   0.0426667   0.0000000   0.0000000), wk =   0.0046296
        k(    2) = (   0.0426667   0.0416667   0.0000000), wk =   0.0092593
        k(    3) = (   0.0426667   0.1250000   0.0000000), wk =   0.0092593
        k(    4) = (   0.0426667   0.2083333   0.0000000), wk =   0.0092593
        k(    5) = (   0.0426667   0.2916667   0.0000000), wk =   0.0092593
        k(    6) = (   0.0426667   0.3750000   0.0000000), wk =   0.0092593
        k(    7) = (   0.0426667   0.4583333   0.0000000), wk =   0.0092593
        k(    8) = (   0.0426667   0.5416667   0.0000000), wk =   0.0092593
        k(    9) = (   0.0426667   0.6250000   0.0000000), wk =   0.0092593
        k(   10) = (   0.0426667   0.7083333   0.0000000), wk =   0.0092593
        k(   11) = (   0.0426667   0.7916667   0.0000000), wk =   0.0092593
        k(   12) = (   0.0426667   0.8750000   0.0000000), wk =   0.0092593
        k(   13) = (   0.0426667   0.9583333   0.0000000), wk =   0.0092593
        k(   14) = (   0.0843333   0.0416667   0.0000000), wk =   0.0092593
        k(   15) = (   0.0843333   0.1250000   0.0000000), wk =   0.0092593
        k(   16) = (   0.0843333   0.2083333   0.0000000), wk =   0.0092593
        k(   17) = (   0.0843333   0.2916667   0.0000000), wk =   0.0092593
        k(   18) = (   0.0843333   0.3750000   0.0000000), wk =   0.0092593
        k(   19) = (   0.0843333   0.4583333   0.0000000), wk =   0.0092593
        k(   20) = (   0.0843333   0.5416667   0.0000000), wk =   0.0092593
        k(   21) = (   0.0843333   0.6250000   0.0000000), wk =   0.0092593
        k(   22) = (   0.0843333   0.7083333   0.0000000), wk =   0.0092593
        k(   23) = (   0.0843333   0.7916667   0.0000000), wk =   0.0092593
        k(   24) = (   0.0843333   0.8750000   0.0000000), wk =   0.0092593
        k(   25) = (   0.1260000   0.0000000   0.0000000), wk =   0.0046296
        k(   26) = (   0.1260000   0.0416667   0.0000000), wk =   0.0092593
        k(   27) = (   0.1260000   0.1250000   0.0000000), wk =   0.0092593
        k(   28) = (   0.1260000   0.2083333   0.0000000), wk =   0.0092593
        k(   29) = (   0.1260000   0.2916667   0.0000000), wk =   0.0092593
        k(   30) = (   0.1260000   0.3750000   0.0000000), wk =   0.0092593
        k(   31) = (   0.1260000   0.4583333   0.0000000), wk =   0.0092593
        k(   32) = (   0.1260000   0.5416667   0.0000000), wk =   0.0092593
        k(   33) = (   0.1260000   0.6250000   0.0000000), wk =   0.0092593
        k(   34) = (   0.1260000   0.7083333   0.0000000), wk =   0.0092593
        k(   35) = (   0.1260000   0.7916667   0.0000000), wk =   0.0092593
        k(   36) = (   0.1260000   0.8750000   0.0000000), wk =   0.0092593
        k(   37) = (   0.1260000   0.9166667   0.0000000), wk =   0.0092593
        k(   38) = (   0.1676667   0.0416667   0.0000000), wk =   0.0092593
        k(   39) = (   0.1676667   0.1250000   0.0000000), wk =   0.0092593
        k(   40) = (   0.1676667   0.2083333   0.0000000), wk =   0.0092593
        k(   41) = (   0.1676667   0.2916667   0.0000000), wk =   0.0092593
        k(   42) = (   0.1676667   0.3750000   0.0000000), wk =   0.0092593
        k(   43) = (   0.1676667   0.4583333   0.0000000), wk =   0.0092593
        k(   44) = (   0.1676667   0.5416667   0.0000000), wk =   0.0092593
        k(   45) = (   0.1676667   0.6250000   0.0000000), wk =   0.0092593
        k(   46) = (   0.1676667   0.7083333   0.0000000), wk =   0.0092593
        k(   47) = (   0.1676667   0.7916667   0.0000000), wk =   0.0092593
        k(   48) = (   0.2093333   0.0000000   0.0000000), wk =   0.0046296
        k(   49) = (   0.2093333   0.0416667   0.0000000), wk =   0.0092593
        k(   50) = (   0.2093333   0.1250000   0.0000000), wk =   0.0092593
        k(   51) = (   0.2093333   0.2083333   0.0000000), wk =   0.0092593
        k(   52) = (   0.2093333   0.2916667   0.0000000), wk =   0.0092593
        k(   53) = (   0.2093333   0.3750000   0.0000000), wk =   0.0092593
        k(   54) = (   0.2093333   0.4583333   0.0000000), wk =   0.0092593
        k(   55) = (   0.2093333   0.5416667   0.0000000), wk =   0.0092593
        k(   56) = (   0.2093333   0.6250000   0.0000000), wk =   0.0092593
        k(   57) = (   0.2093333   0.7083333   0.0000000), wk =   0.0092593
        k(   58) = (   0.2093333   0.7916667   0.0000000), wk =   0.0092593
        k(   59) = (   0.2093333   0.8333333   0.0000000), wk =   0.0092593
        k(   60) = (   0.2093333   0.9166667   0.0000000), wk =   0.0092593
        k(   61) = (   0.2510000   0.0416667   0.0000000), wk =   0.0092593
        k(   62) = (   0.2510000   0.1250000   0.0000000), wk =   0.0092593
        k(   63) = (   0.2510000   0.2083333   0.0000000), wk =   0.0092593
        k(   64) = (   0.2510000   0.2916667   0.0000000), wk =   0.0092593
        k(   65) = (   0.2510000   0.3750000   0.0000000), wk =   0.0092593
        k(   66) = (   0.2510000   0.4583333   0.0000000), wk =   0.0092593
        k(   67) = (   0.2510000   0.5416667   0.0000000), wk =   0.0092593
        k(   68) = (   0.2510000   0.6250000   0.0000000), wk =   0.0092593
        k(   69) = (   0.2510000   0.7083333   0.0000000), wk =   0.0092593
        k(   70) = (   0.2926667   0.0000000   0.0000000), wk =   0.0046296
        k(   71) = (   0.2926667   0.0416667   0.0000000), wk =   0.0092593
        k(   72) = (   0.2926667   0.1250000   0.0000000), wk =   0.0092593
        k(   73) = (   0.2926667   0.2083333   0.0000000), wk =   0.0092593
        k(   74) = (   0.2926667   0.2916667   0.0000000), wk =   0.0092593
        k(   75) = (   0.2926667   0.3750000   0.0000000), wk =   0.0092593
        k(   76) = (   0.2926667   0.4583333   0.0000000), wk =   0.0092593
        k(   77) = (   0.2926667   0.5416667   0.0000000), wk =   0.0092593
        k(   78) = (   0.2926667   0.6250000   0.0000000), wk =   0.0092593
        k(   79) = (   0.2926667   0.7083333   0.0000000), wk =   0.0092593
        k(   80) = (   0.2926667   0.7500000   0.0000000), wk =   0.0092593
        k(   81) = (   0.2926667   0.8333333   0.0000000), wk =   0.0092593
        k(   82) = (   0.2926667   0.9166667   0.0000000), wk =   0.0092593
        k(   83) = (   0.3343333   0.0416667   0.0000000), wk =   0.0092593
        k(   84) = (   0.3343333   0.1250000   0.0000000), wk =   0.0092593
        k(   85) = (   0.3343333   0.2083333   0.0000000), wk =   0.0092593
        k(   86) = (   0.3343333   0.2916667   0.0000000), wk =   0.0092593
        k(   87) = (   0.3343333   0.3750000   0.0000000), wk =   0.0092593
        k(   88) = (   0.3343333   0.4583333   0.0000000), wk =   0.0092593
        k(   89) = (   0.3343333   0.5416667   0.0000000), wk =   0.0092593
        k(   90) = (   0.3343333   0.6250000   0.0000000), wk =   0.0092593
        k(   91) = (   0.3760000   0.0000000   0.0000000), wk =   0.0046296
        k(   92) = (   0.3760000   0.0416667   0.0000000), wk =   0.0092593
        k(   93) = (   0.3760000   0.1250000   0.0000000), wk =   0.0092593
        k(   94) = (   0.3760000   0.2083333   0.0000000), wk =   0.0092593
        k(   95) = (   0.3760000   0.2916667   0.0000000), wk =   0.0092593
        k(   96) = (   0.3760000   0.3750000   0.0000000), wk =   0.0092593
        k(   97) = (   0.3760000   0.4583333   0.0000000), wk =   0.0092593
        k(   98) = (   0.3760000   0.5416667   0.0000000), wk =   0.0092593
        k(   99) = (   0.3760000   0.6250000   0.0000000), wk =   0.0092593
        k(  100) = (   0.3760000   0.6666667   0.0000000), wk =   0.0092593
        k(  101) = (   0.3760000   0.7500000   0.0000000), wk =   0.0092593
        k(  102) = (   0.3760000   0.8333333   0.0000000), wk =   0.0092593
        k(  103) = (   0.3760000   0.9166667   0.0000000), wk =   0.0092593
        k(  104) = (   0.4176667   0.0416667   0.0000000), wk =   0.0092593
        k(  105) = (   0.4176667   0.1250000   0.0000000), wk =   0.0092593
        k(  106) = (   0.4176667   0.2083333   0.0000000), wk =   0.0092593
        k(  107) = (   0.4176667   0.2916667   0.0000000), wk =   0.0092593
        k(  108) = (   0.4176667   0.3750000   0.0000000), wk =   0.0092593
        k(  109) = (   0.4176667   0.4583333   0.0000000), wk =   0.0092593
        k(  110) = (   0.4176667   0.5416667   0.0000000), wk =   0.0092593
        k(  111) = (   0.4593333   0.0000000   0.0000000), wk =   0.0046296
        k(  112) = (   0.4593333   0.0416667   0.0000000), wk =   0.0092593
        k(  113) = (   0.4593333   0.1250000   0.0000000), wk =   0.0092593
        k(  114) = (   0.4593333   0.2083333   0.0000000), wk =   0.0092593
        k(  115) = (   0.4593333   0.2916667   0.0000000), wk =   0.0092593
        k(  116) = (   0.4593333   0.3750000   0.0000000), wk =   0.0092593
        k(  117) = (   0.4593333   0.4583333   0.0000000), wk =   0.0092593
        k(  118) = (   0.4593333   0.5416667   0.0000000), wk =   0.0092593
        k(  119) = (   0.4593333   0.5833333   0.0000000), wk =   0.0092593
        k(  120) = (   0.4593333   0.6666667   0.0000000), wk =   0.0092593
        k(  121) = (   0.4593333   0.7500000   0.0000000), wk =   0.0092593
        k(  122) = (   0.4593333   0.8333333   0.0000000), wk =   0.0092593
        k(  123) = (   0.4593333   0.9166667   0.0000000), wk =   0.0092593
        k(  124) = (   0.5010000   0.0416667   0.0000000), wk =   0.0092593
        k(  125) = (   0.5010000   0.1250000   0.0000000), wk =   0.0092593
        k(  126) = (   0.5010000   0.2083333   0.0000000), wk =   0.0092593
        k(  127) = (   0.5010000   0.2916667   0.0000000), wk =   0.0092593
        k(  128) = (   0.5010000   0.3750000   0.0000000), wk =   0.0092593
        k(  129) = (   0.5010000   0.4583333   0.0000000), wk =   0.0092593
        k(  130) = (   0.5426667   0.0000000   0.0000000), wk =   0.0046296
        k(  131) = (   0.5426667   0.0416667   0.0000000), wk =   0.0092593
        k(  132) = (   0.5426667   0.1250000   0.0000000), wk =   0.0092593
        k(  133) = (   0.5426667   0.2083333   0.0000000), wk =   0.0092593
        k(  134) = (   0.5426667   0.2916667   0.0000000), wk =   0.0092593
        k(  135) = (   0.5426667   0.3750000   0.0000000), wk =   0.0092593
        k(  136) = (   0.5426667   0.4583333   0.0000000), wk =   0.0092593
        k(  137) = (   0.5426667   0.5000000   0.0000000), wk =   0.0092593
        k(  138) = (   0.5426667   0.5833333   0.0000000), wk =   0.0092593
        k(  139) = (   0.5426667   0.6666667   0.0000000), wk =   0.0092593
        k(  140) = (   0.5426667   0.7500000   0.0000000), wk =   0.0092593
        k(  141) = (   0.5426667   0.8333333   0.0000000), wk =   0.0092593
        k(  142) = (   0.5426667   0.9166667   0.0000000), wk =   0.0092593
        k(  143) = (   0.5843333   0.0416667   0.0000000), wk =   0.0092593
        k(  144) = (   0.5843333   0.1250000   0.0000000), wk =   0.0092593
        k(  145) = (   0.5843333   0.2083333   0.0000000), wk =   0.0092593
        k(  146) = (   0.5843333   0.2916667   0.0000000), wk =   0.0092593
        k(  147) = (   0.5843333   0.3750000   0.0000000), wk =   0.0092593
        k(  148) = (   0.6260000   0.0000000   0.0000000), wk =   0.0046296
        k(  149) = (   0.6260000   0.0416667   0.0000000), wk =   0.0092593
        k(  150) = (   0.6260000   0.1250000   0.0000000), wk =   0.0092593
        k(  151) = (   0.6260000   0.2083333   0.0000000), wk =   0.0092593
        k(  152) = (   0.6260000   0.2916667   0.0000000), wk =   0.0092593
        k(  153) = (   0.6260000   0.3750000   0.0000000), wk =   0.0092593
        k(  154) = (   0.6260000   0.4166667   0.0000000), wk =   0.0092593
        k(  155) = (   0.6260000   0.5000000   0.0000000), wk =   0.0092593
        k(  156) = (   0.6260000   0.5833333   0.0000000), wk =   0.0092593
        k(  157) = (   0.6260000   0.6666667   0.0000000), wk =   0.0092593
        k(  158) = (   0.6260000   0.7500000   0.0000000), wk =   0.0092593
        k(  159) = (   0.6260000   0.8333333   0.0000000), wk =   0.0092593
        k(  160) = (   0.6260000   0.9166667   0.0000000), wk =   0.0092593
        k(  161) = (   0.6676667   0.0416667   0.0000000), wk =   0.0092593
        k(  162) = (   0.6676667   0.1250000   0.0000000), wk =   0.0092593
        k(  163) = (   0.6676667   0.2083333   0.0000000), wk =   0.0092593
        k(  164) = (   0.6676667   0.2916667   0.0000000), wk =   0.0092593
        k(  165) = (   0.7093333   0.0000000   0.0000000), wk =   0.0046296
        k(  166) = (   0.7093333   0.0416667   0.0000000), wk =   0.0092593
        k(  167) = (   0.7093333   0.1250000   0.0000000), wk =   0.0092593
        k(  168) = (   0.7093333   0.2083333   0.0000000), wk =   0.0092593
        k(  169) = (   0.7093333   0.2916667   0.0000000), wk =   0.0092593
        k(  170) = (   0.7093333   0.3333333   0.0000000), wk =   0.0092593
        k(  171) = (   0.7093333   0.4166667   0.0000000), wk =   0.0092593
        k(  172) = (   0.7093333   0.5000000   0.0000000), wk =   0.0092593
        k(  173) = (   0.7093333   0.5833333   0.0000000), wk =   0.0092593
        k(  174) = (   0.7093333   0.6666667   0.0000000), wk =   0.0092593
        k(  175) = (   0.7093333   0.7500000   0.0000000), wk =   0.0092593
        k(  176) = (   0.7093333   0.8333333   0.0000000), wk =   0.0092593
        k(  177) = (   0.7093333   0.9166667   0.0000000), wk =   0.0092593
        k(  178) = (   0.7510000   0.0416667   0.0000000), wk =   0.0092593
        k(  179) = (   0.7510000   0.1250000   0.0000000), wk =   0.0092593
        k(  180) = (   0.7510000   0.2083333   0.0000000), wk =   0.0092593
        k(  181) = (   0.7926667   0.0000000   0.0000000), wk =   0.0046296
        k(  182) = (   0.7926667   0.0416667   0.0000000), wk =   0.0092593
        k(  183) = (   0.7926667   0.1250000   0.0000000), wk =   0.0092593
        k(  184) = (   0.7926667   0.2083333   0.0000000), wk =   0.0092593
        k(  185) = (   0.7926667   0.2500000   0.0000000), wk =   0.0092593
        k(  186) = (   0.7926667   0.3333333   0.0000000), wk =   0.0092593
        k(  187) = (   0.7926667   0.4166667   0.0000000), wk =   0.0092593
        k(  188) = (   0.7926667   0.5000000   0.0000000), wk =   0.0092593
        k(  189) = (   0.7926667   0.5833333   0.0000000), wk =   0.0092593
        k(  190) = (   0.7926667   0.6666667   0.0000000), wk =   0.0092593
        k(  191) = (   0.7926667   0.7500000   0.0000000), wk =   0.0092593
        k(  192) = (   0.7926667   0.8333333   0.0000000), wk =   0.0092593
        k(  193) = (   0.7926667   0.9166667   0.0000000), wk =   0.0092593
        k(  194) = (   0.8343333   0.0416667   0.0000000), wk =   0.0092593
        k(  195) = (   0.8343333   0.1250000   0.0000000), wk =   0.0092593
        k(  196) = (   0.8760000   0.0000000   0.0000000), wk =   0.0046296
        k(  197) = (   0.8760000   0.0416667   0.0000000), wk =   0.0092593
        k(  198) = (   0.8760000   0.1250000   0.0000000), wk =   0.0092593
        k(  199) = (   0.8760000   0.1666667   0.0000000), wk =   0.0092593
        k(  200) = (   0.8760000   0.2500000   0.0000000), wk =   0.0092593
        k(  201) = (   0.8760000   0.3333333   0.0000000), wk =   0.0092593
        k(  202) = (   0.8760000   0.4166667   0.0000000), wk =   0.0092593
        k(  203) = (   0.8760000   0.5000000   0.0000000), wk =   0.0092593
        k(  204) = (   0.8760000   0.5833333   0.0000000), wk =   0.0092593
        k(  205) = (   0.8760000   0.6666667   0.0000000), wk =   0.0092593
        k(  206) = (   0.8760000   0.7500000   0.0000000), wk =   0.0092593
        k(  207) = (   0.8760000   0.8333333   0.0000000), wk =   0.0092593
        k(  208) = (   0.8760000   0.9166667   0.0000000), wk =   0.0092593
        k(  209) = (   0.9176667   0.0416667   0.0000000), wk =   0.0092593
        k(  210) = (   0.9593333   0.0000000   0.0000000), wk =   0.0046296
        k(  211) = (   0.9593333   0.0416667   0.0000000), wk =   0.0092593
        k(  212) = (   0.9593333   0.0833333   0.0000000), wk =   0.0092593
        k(  213) = (   0.9593333   0.1666667   0.0000000), wk =   0.0092593
        k(  214) = (   0.9593333   0.2500000   0.0000000), wk =   0.0092593
        k(  215) = (   0.9593333   0.3333333   0.0000000), wk =   0.0092593
        k(  216) = (   0.9593333   0.4166667   0.0000000), wk =   0.0092593
        k(  217) = (   0.9593333   0.5000000   0.0000000), wk =   0.0092593
        k(  218) = (   0.9593333   0.5833333   0.0000000), wk =   0.0092593
        k(  219) = (   0.9593333   0.6666667   0.0000000), wk =   0.0092593
        k(  220) = (   0.9593333   0.7500000   0.0000000), wk =   0.0092593
        k(  221) = (   0.9593333   0.8333333   0.0000000), wk =   0.0092593
        k(  222) = (   0.9593333   0.9166667   0.0000000), wk =   0.0092593

     Dense  grid:    58197 G-vectors     FFT dimensions: (  25,  25, 216)

     Dynamical RAM for                 wfc:       0.44 MB

     Dynamical RAM for     wfc (w. buffer):       0.44 MB

     Dynamical RAM for           str. fact:       1.78 MB

     Dynamical RAM for           local pot:       0.00 MB

     Dynamical RAM for          nlocal pot:       1.99 MB

     Dynamical RAM for                qrad:       0.58 MB

     Dynamical RAM for          rho,v,vnew:       5.75 MB

     Dynamical RAM for           G-vectors:       3.77 MB

     Dynamical RAM for          h,s,v(r/c):       0.01 MB

     Dynamical RAM for          <psi|beta>:       0.00 MB

     Dynamical RAM for                 psi:       1.77 MB

     Dynamical RAM for                hpsi:       1.77 MB

     Dynamical RAM for      wfcinit/wfcrot:       7.11 MB

     Estimated static dynamical RAM per process >      22.13 MB

     Estimated max dynamical RAM per process >      29.25 MB

     Estimated total dynamical RAM >      58.49 MB

     Check: negative core charge=   -0.000010

     The potential is recalculated from file :
     ./BN.save/charge-density

     Starting wfcs are   32 randomized atomic wfcs

     Band Structure Calculation
     Davidson diagonalization with overlap

     Computing kpt #:     1
     total cpu time spent up to now is        0.8 secs

     Computing kpt #:     2
     total cpu time spent up to now is        1.0 secs

     Computing kpt #:     3
     total cpu time spent up to now is        1.3 secs

     Computing kpt #:     4
     total cpu time spent up to now is        1.5 secs

     Computing kpt #:     5
     total cpu time spent up to now is        1.8 secs

     Computing kpt #:     6
     total cpu time spent up to now is        2.0 secs

     Computing kpt #:     7
     total cpu time spent up to now is        2.2 secs

     Computing kpt #:     8
     total cpu time spent up to now is        2.5 secs

     Computing kpt #:     9
     total cpu time spent up to now is        2.7 secs

     Computing kpt #:    10
     total cpu time spent up to now is        2.9 secs

     Computing kpt #:    11
     total cpu time spent up to now is        3.2 secs

     Computing kpt #:    12
     total cpu time spent up to now is        3.4 secs

     Computing kpt #:    13
     total cpu time spent up to now is        3.6 secs

     Computing kpt #:    14
     total cpu time spent up to now is        3.9 secs

     Computing kpt #:    15
     total cpu time spent up to now is        4.1 secs

     Computing kpt #:    16
     total cpu time spent up to now is        4.4 secs

     Computing kpt #:    17
     total cpu time spent up to now is        4.6 secs

     Computing kpt #:    18
     total cpu time spent up to now is        4.8 secs

     Computing kpt #:    19
     total cpu time spent up to now is        5.1 secs

     Computing kpt #:    20
     total cpu time spent up to now is        5.3 secs

     Computing kpt #:    21
     total cpu time spent up to now is        5.5 secs

     Computing kpt #:    22
     total cpu time spent up to now is        5.8 secs

     Computing kpt #:    23
     total cpu time spent up to now is        6.0 secs

     Computing kpt #:    24
     total cpu time spent up to now is        6.3 secs

     Computing kpt #:    25
     total cpu time spent up to now is        6.5 secs

     Computing kpt #:    26
     total cpu time spent up to now is        6.7 secs

     Computing kpt #:    27
     total cpu time spent up to now is        7.0 secs

     Computing kpt #:    28
     total cpu time spent up to now is        7.2 secs

     Computing kpt #:    29
     total cpu time spent up to now is        7.5 secs

     Computing kpt #:    30
     total cpu time spent up to now is        7.7 secs

     Computing kpt #:    31
     total cpu time spent up to now is        7.9 secs

     Computing kpt #:    32
     total cpu time spent up to now is        8.2 secs

     Computing kpt #:    33
     total cpu time spent up to now is        8.4 secs

     Computing kpt #:    34
     total cpu time spent up to now is        8.6 secs

     Computing kpt #:    35
     total cpu time spent up to now is        8.9 secs

     Computing kpt #:    36
     total cpu time spent up to now is        9.1 secs

     Computing kpt #:    37
     total cpu time spent up to now is        9.4 secs

     Computing kpt #:    38
     total cpu time spent up to now is        9.6 secs

     Computing kpt #:    39
     total cpu time spent up to now is        9.8 secs

     Computing kpt #:    40
     total cpu time spent up to now is       10.1 secs

     Computing kpt #:    41
     total cpu time spent up to now is       10.3 secs

     Computing kpt #:    42
     total cpu time spent up to now is       10.5 secs

     Computing kpt #:    43
     total cpu time spent up to now is       10.8 secs

     Computing kpt #:    44
     total cpu time spent up to now is       11.0 secs

     Computing kpt #:    45
     total cpu time spent up to now is       11.2 secs

     Computing kpt #:    46
     total cpu time spent up to now is       11.5 secs

     Computing kpt #:    47
     total cpu time spent up to now is       11.7 secs

     Computing kpt #:    48
     total cpu time spent up to now is       12.0 secs

     Computing kpt #:    49
     total cpu time spent up to now is       12.2 secs

     Computing kpt #:    50
     total cpu time spent up to now is       12.4 secs

     Computing kpt #:    51
     total cpu time spent up to now is       12.7 secs

     Computing kpt #:    52
     total cpu time spent up to now is       12.9 secs

     Computing kpt #:    53
     total cpu time spent up to now is       13.1 secs

     Computing kpt #:    54
     total cpu time spent up to now is       13.4 secs

     Computing kpt #:    55
     total cpu time spent up to now is       13.6 secs

     Computing kpt #:    56
     total cpu time spent up to now is       13.9 secs

     Computing kpt #:    57
     total cpu time spent up to now is       14.1 secs

     Computing kpt #:    58
     total cpu time spent up to now is       14.3 secs

     Computing kpt #:    59
     total cpu time spent up to now is       14.6 secs

     Computing kpt #:    60
     total cpu time spent up to now is       14.8 secs

     Computing kpt #:    61
     total cpu time spent up to now is       15.1 secs

     Computing kpt #:    62
     total cpu time spent up to now is       15.3 secs

     Computing kpt #:    63
     total cpu time spent up to now is       15.5 secs

     Computing kpt #:    64
     total cpu time spent up to now is       15.8 secs

     Computing kpt #:    65
     total cpu time spent up to now is       16.0 secs

     Computing kpt #:    66
     total cpu time spent up to now is       16.2 secs

     Computing kpt #:    67
     total cpu time spent up to now is       16.5 secs

     Computing kpt #:    68
     total cpu time spent up to now is       16.7 secs

     Computing kpt #:    69
     total cpu time spent up to now is       17.0 secs

     Computing kpt #:    70
     total cpu time spent up to now is       17.2 secs

     Computing kpt #:    71
     total cpu time spent up to now is       17.4 secs

     Computing kpt #:    72
     total cpu time spent up to now is       17.7 secs

     Computing kpt #:    73
     total cpu time spent up to now is       17.9 secs

     Computing kpt #:    74
     total cpu time spent up to now is       18.2 secs

     Computing kpt #:    75
     total cpu time spent up to now is       18.4 secs

     Computing kpt #:    76
     total cpu time spent up to now is       18.6 secs

     Computing kpt #:    77
     total cpu time spent up to now is       18.9 secs

     Computing kpt #:    78
     total cpu time spent up to now is       19.1 secs

     Computing kpt #:    79
     total cpu time spent up to now is       19.3 secs

     Computing kpt #:    80
     total cpu time spent up to now is       19.6 secs

     Computing kpt #:    81
     total cpu time spent up to now is       19.8 secs

     Computing kpt #:    82
     total cpu time spent up to now is       20.1 secs

     Computing kpt #:    83
     total cpu time spent up to now is       20.3 secs

     Computing kpt #:    84
     total cpu time spent up to now is       20.5 secs

     Computing kpt #:    85
     total cpu time spent up to now is       20.8 secs

     Computing kpt #:    86
     total cpu time spent up to now is       21.0 secs

     Computing kpt #:    87
     total cpu time spent up to now is       21.3 secs

     Computing kpt #:    88
     total cpu time spent up to now is       21.5 secs

     Computing kpt #:    89
     total cpu time spent up to now is       21.7 secs

     Computing kpt #:    90
     total cpu time spent up to now is       22.0 secs

     Computing kpt #:    91
     total cpu time spent up to now is       22.2 secs

     Computing kpt #:    92
     total cpu time spent up to now is       22.4 secs

     Computing kpt #:    93
     total cpu time spent up to now is       22.7 secs

     Computing kpt #:    94
     total cpu time spent up to now is       22.9 secs

     Computing kpt #:    95
     total cpu time spent up to now is       23.1 secs

     Computing kpt #:    96
     total cpu time spent up to now is       23.4 secs

     Computing kpt #:    97
     total cpu time spent up to now is       23.6 secs

     Computing kpt #:    98
     total cpu time spent up to now is       23.8 secs

     Computing kpt #:    99
     total cpu time spent up to now is       24.1 secs

     Computing kpt #:   100
     total cpu time spent up to now is       24.3 secs

     Computing kpt #:   101
     total cpu time spent up to now is       24.5 secs

     Computing kpt #:   102
     total cpu time spent up to now is       24.8 secs

     Computing kpt #:   103
     total cpu time spent up to now is       25.0 secs

     Computing kpt #:   104
     total cpu time spent up to now is       25.3 secs

     Computing kpt #:   105
     total cpu time spent up to now is       25.5 secs

     Computing kpt #:   106
     total cpu time spent up to now is       25.7 secs

     Computing kpt #:   107
     total cpu time spent up to now is       26.0 secs

     Computing kpt #:   108
     total cpu time spent up to now is       26.2 secs

     Computing kpt #:   109
     total cpu time spent up to now is       26.4 secs

     Computing kpt #:   110
     total cpu time spent up to now is       26.7 secs

     Computing kpt #:   111
     total cpu time spent up to now is       26.9 secs

     ethr =  1.25E-12,  avg # of iterations = 13.6

     total cpu time spent up to now is       26.9 secs

     End of band structure calculation

          k = 0.0427 0.0246 0.0000 (  7275 PWs)   bands (ev):

   -21.7808  -9.6223  -5.8989  -5.8217

          k = 0.0427 0.0727 0.0000 (  7281 PWs)   bands (ev):

   -21.7127  -9.5312  -6.1684  -5.9577

          k = 0.0427 0.1690 0.0000 (  7288 PWs)   bands (ev):

   -21.3785  -9.0838  -7.3426  -6.5396

          k = 0.0427 0.2652 0.0000 (  7265 PWs)   bands (ev):

   -20.8001  -9.0118  -8.3043  -7.2817

          k = 0.0427 0.3614 0.0000 (  7277 PWs)   bands (ev):

   -20.0313 -10.7842  -7.9537  -7.2531

          k = 0.0427 0.4576 0.0000 (  7282 PWs)   bands (ev):

   -19.2105 -12.3180  -8.4263  -6.0933

          k = 0.0427 0.5539 0.0000 (  7264 PWs)   bands (ev):

   -18.6834 -13.1648  -8.6373  -5.3033

          k = 0.0427 0.6501 0.0000 (  7272 PWs)   bands (ev):

   -18.8842 -12.8530  -8.5641  -5.6110

          k = 0.0427 0.7463 0.0000 (  7270 PWs)   bands (ev):

   -19.6225 -11.5854  -8.2142  -6.6824

          k = 0.0427 0.8425 0.0000 (  7276 PWs)   bands (ev):

   -20.4431  -9.8849  -7.8189  -7.6285

          k = 0.0427 0.9388 0.0000 (  7263 PWs)   bands (ev):

   -21.1245  -8.7424  -8.1217  -6.8987

          k = 0.0427 1.0350 0.0000 (  7271 PWs)   bands (ev):

   -21.5819  -9.3563  -6.6518  -6.2028

          k = 0.0427 1.1312 0.0000 (  7273 PWs)   bands (ev):

   -21.7817  -9.6234  -5.8956  -5.8201

          k = 0.0843 0.0968 0.0000 (  7271 PWs)   bands (ev):

   -21.5771  -9.3499  -6.6694  -6.2108

          k = 0.0843 0.1930 0.0000 (  7279 PWs)   bands (ev):

   -21.1811  -8.8186  -7.8834  -6.9136

          k = 0.0843 0.2893 0.0000 (  7260 PWs)   bands (ev):

   -20.5519  -9.5066  -7.9676  -7.7077

          k = 0.0843 0.3855 0.0000 (  7271 PWs)   bands (ev):

   -19.7577 -11.1916  -8.3650  -6.8736

          k = 0.0843 0.4817 0.0000 (  7266 PWs)   bands (ev):

   -18.9750 -12.5704  -8.7869  -5.7506

          k = 0.0843 0.5779 0.0000 (  7260 PWs)   bands (ev):

   -18.6073 -13.1444  -8.9305  -5.1898

          k = 0.0843 0.6742 0.0000 (  7266 PWs)   bands (ev):

   -18.9830 -12.5574  -8.7834  -5.7625

          k = 0.0843 0.7704 0.0000 (  7271 PWs)   bands (ev):

   -19.7677 -11.1724  -8.3583  -6.8876

          k = 0.0843 0.8666 0.0000 (  7262 PWs)   bands (ev):

   -20.5606  -9.4861  -7.9794  -7.6987

          k = 0.0843 0.9628 0.0000 (  7279 PWs)   bands (ev):

   -21.1874  -8.8270  -7.8658  -6.9039

          k = 0.0843 1.0591 0.0000 (  7269 PWs)   bands (ev):

   -21.5803  -9.3542  -6.6586  -6.2044

          k = 0.1260 0.0727 0.0000 (  7283 PWs)   bands (ev):

   -21.5098  -9.2598  -6.9268  -6.3022

          k = 0.1260 0.1209 0.0000 (  7290 PWs)   bands (ev):

   -21.3770  -9.0817  -7.3489  -6.5406

          k = 0.1260 0.2171 0.0000 (  7299 PWs)   bands (ev):

   -20.9235  -8.5225  -8.4713  -7.3600

          k = 0.1260 0.3133 0.0000 (  7263 PWs)   bands (ev):

   -20.2516 -10.0139  -8.2352  -7.5579

          k = 0.1260 0.4095 0.0000 (  7262 PWs)   bands (ev):

   -19.4488 -11.5538  -8.8939  -6.4404

          k = 0.1260 0.5058 0.0000 (  7261 PWs)   bands (ev):

   -18.7370 -12.7301  -9.2698  -5.3984

          k = 0.1260 0.6020 0.0000 (  7246 PWs)   bands (ev):

   -18.5530 -13.0094  -9.3442  -5.1132

          k = 0.1260 0.6982 0.0000 (  7253 PWs)   bands (ev):

   -19.0672 -12.2042  -9.1142  -5.8910

          k = 0.1260 0.7944 0.0000 (  7257 PWs)   bands (ev):

   -19.8671 -10.7821  -8.5899  -7.0275

          k = 0.1260 0.8907 0.0000 (  7280 PWs)   bands (ev):

   -20.6193  -9.2228  -8.0594  -7.8048

          k = 0.1260 0.9869 0.0000 (  7277 PWs)   bands (ev):

   -21.1858  -8.8249  -7.8729  -6.9030

          k = 0.1260 1.0831 0.0000 (  7283 PWs)   bands (ev):

   -21.5122  -9.2630  -6.9184  -6.2984

          k = 0.1260 1.1312 0.0000 (  7269 PWs)   bands (ev):

   -21.5779  -9.3510  -6.6660  -6.2100

          k = 0.1677 0.1449 0.0000 (  7265 PWs)   bands (ev):

   -21.1152  -8.7299  -8.1503  -6.9085

          k = 0.1677 0.2411 0.0000 (  7276 PWs)   bands (ev):

   -20.6105  -9.2445  -8.0475  -7.8137

          k = 0.1677 0.3374 0.0000 (  7254 PWs)   bands (ev):

   -19.9079 -10.5327  -8.7948  -7.0848

          k = 0.1677 0.4336 0.0000 (  7236 PWs)   bands (ev):

   -19.1189 -11.8596  -9.4838  -5.9702

          k = 0.1677 0.5298 0.0000 (  7258 PWs)   bands (ev):

   -18.5152 -12.7842  -9.8221  -5.0634

          k = 0.1677 0.6260 0.0000 (  7258 PWs)   bands (ev):

   -18.5196 -12.7778  -9.8200  -5.0703

          k = 0.1677 0.7223 0.0000 (  7236 PWs)   bands (ev):

   -19.1280 -11.8450  -9.4777  -5.9834

          k = 0.1677 0.8185 0.0000 (  7252 PWs)   bands (ev):

   -19.9171 -10.5164  -8.7844  -7.0976

          k = 0.1677 0.9147 0.0000 (  7276 PWs)   bands (ev):

   -20.6178  -9.2302  -8.0575  -7.8012

          k = 0.1677 1.0109 0.0000 (  7263 PWs)   bands (ev):

   -21.1199  -8.7362  -8.1385  -6.9003

          k = 0.2093 0.1209 0.0000 (  7289 PWs)   bands (ev):

   -20.9868  -8.5567  -8.5546  -7.0132

          k = 0.2093 0.1690 0.0000 (  7267 PWs)   bands (ev):

   -20.7971  -9.0216  -8.3003  -7.2821

          k = 0.2093 0.2652 0.0000 (  7263 PWs)   bands (ev):

   -20.2503 -10.0206  -8.2313  -7.5560

          k = 0.2093 0.3614 0.0000 (  7258 PWs)   bands (ev):

   -19.5338 -11.0662  -9.3165  -6.5632

          k = 0.2093 0.4576 0.0000 (  7250 PWs)   bands (ev):

   -18.7892 -12.1008 -10.0758  -5.4886

          k = 0.2093 0.5539 0.0000 (  7250 PWs)   bands (ev):

   -18.3290 -12.7278 -10.3879  -4.7760

          k = 0.2093 0.6501 0.0000 (  7253 PWs)   bands (ev):

   -18.5021 -12.4939 -10.2819  -5.0511

          k = 0.2093 0.7463 0.0000 (  7254 PWs)   bands (ev):

   -19.1596 -11.5878  -9.7431  -6.0312

          k = 0.2093 0.8425 0.0000 (  7256 PWs)   bands (ev):

   -19.9159 -10.5239  -8.7786  -7.0959

          k = 0.2093 0.9388 0.0000 (  7262 PWs)   bands (ev):

   -20.5563  -9.5032  -7.9736  -7.6934

          k = 0.2093 1.0350 0.0000 (  7287 PWs)   bands (ev):

   -20.9906  -8.5618  -8.5439  -7.0088

          k = 0.2093 1.0831 0.0000 (  7263 PWs)   bands (ev):

   -21.1175  -8.7330  -8.1419  -6.9077

          k = 0.2093 1.1793 0.0000 (  7279 PWs)   bands (ev):

   -21.1804  -8.8176  -7.8870  -6.9131

          k = 0.2510 0.1930 0.0000 (  7272 PWs)   bands (ev):

   -20.4303  -9.9167  -7.8014  -7.6363

          k = 0.2510 0.2893 0.0000 (  7255 PWs)   bands (ev):

   -19.8556 -10.8093  -8.5920  -7.0114

          k = 0.2510 0.3855 0.0000 (  7256 PWs)   bands (ev):

   -19.1501 -11.6042  -9.7485  -6.0175

          k = 0.2510 0.4817 0.0000 (  7240 PWs)   bands (ev):

   -18.4886 -12.2714 -10.6104  -5.0347

          k = 0.2510 0.5779 0.0000 (  7232 PWs)   bands (ev):

   -18.1955 -12.5762 -10.9037  -4.5659

          k = 0.2510 0.6742 0.0000 (  7240 PWs)   bands (ev):

   -18.4951 -12.2648 -10.6033  -5.0448

          k = 0.2510 0.7704 0.0000 (  7256 PWs)   bands (ev):

   -19.1588 -11.5952  -9.7354  -6.0300

          k = 0.2510 0.8666 0.0000 (  7255 PWs)   bands (ev):

   -19.8635 -10.7991  -8.5783  -7.0223

          k = 0.2510 0.9628 0.0000 (  7276 PWs)   bands (ev):

   -20.4360  -9.9056  -7.8093  -7.6281

          k = 0.2927 0.1690 0.0000 (  7245 PWs)   bands (ev):

   -20.2547 -10.3580  -7.7072  -7.5607

          k = 0.2927 0.2171 0.0000 (  7277 PWs)   bands (ev):

   -20.0274 -10.7945  -7.9527  -7.2476

          k = 0.2927 0.3133 0.0000 (  7260 PWs)   bands (ev):

   -19.4467 -11.5630  -8.8865  -6.4374

          k = 0.2927 0.4095 0.0000 (  7252 PWs)   bands (ev):

   -18.7888 -12.1070 -10.0683  -5.4880

          k = 0.2927 0.5058 0.0000 (  7206 PWs)   bands (ev):

   -18.2545 -12.3709 -11.0262  -4.6658

          k = 0.2927 0.6020 0.0000 (  7188 PWs)   bands (ev):

   -18.1267 -12.4073 -11.2598  -4.4562

          k = 0.2927 0.6982 0.0000 (  7242 PWs)   bands (ev):

   -18.4953 -12.2718 -10.5940  -5.0449

          k = 0.2927 0.7944 0.0000 (  7237 PWs)   bands (ev):

   -19.1258 -11.8611  -9.4611  -5.9799

          k = 0.2927 0.8907 0.0000 (  7267 PWs)   bands (ev):

   -19.7617 -11.1922  -8.3487  -6.8792

          k = 0.2927 0.9869 0.0000 (  7245 PWs)   bands (ev):

   -20.2595 -10.3473  -7.7035  -7.5674

          k = 0.2927 1.0350 0.0000 (  7274 PWs)   bands (ev):

   -20.4339  -9.9064  -7.8063  -7.6366

          k = 0.2927 1.1312 0.0000 (  7278 PWs)   bands (ev):

   -20.6112  -9.2408  -8.0484  -7.8155

          k = 0.2927 1.2274 0.0000 (  7262 PWs)   bands (ev):

   -20.5497  -9.5152  -7.9646  -7.7050

          k = 0.3343 0.2411 0.0000 (  7274 PWs)   bands (ev):

   -19.6085 -11.6138  -8.2182  -6.6626

          k = 0.3343 0.3374 0.0000 (  7251 PWs)   bands (ev):

   -19.0566 -12.2274  -9.1100  -5.8754

          k = 0.3343 0.4336 0.0000 (  7259 PWs)   bands (ev):

   -18.4966 -12.5085 -10.2755  -5.0424

          k = 0.3343 0.5298 0.0000 (  7190 PWs)   bands (ev):

   -18.1259 -12.4106 -11.2576  -4.4549

          k = 0.3343 0.6260 0.0000 (  7190 PWs)   bands (ev):

   -18.1284 -12.4131 -11.2493  -4.4589

          k = 0.3343 0.7223 0.0000 (  7259 PWs)   bands (ev):

   -18.5027 -12.5075 -10.2616  -5.0517

          k = 0.3343 0.8185 0.0000 (  7253 PWs)   bands (ev):

   -19.0636 -12.2218  -9.0968  -5.8855

          k = 0.3343 0.9147 0.0000 (  7274 PWs)   bands (ev):

   -19.6144 -11.6049  -8.2109  -6.6710

          k = 0.3760 0.2171 0.0000 (  7279 PWs)   bands (ev):

   -19.4229 -11.9981  -8.2317  -6.3984

          k = 0.3760 0.2652 0.0000 (  7280 PWs)   bands (ev):

   -19.2069 -12.3263  -8.4237  -6.0881

          k = 0.3760 0.3614 0.0000 (  7259 PWs)   bands (ev):

   -18.7362 -12.7373  -9.2599  -5.3970

          k = 0.3760 0.4576 0.0000 (  7252 PWs)   bands (ev):

   -18.3308 -12.7332 -10.3758  -4.7787

          k = 0.3760 0.5539 0.0000 (  7186 PWs)   bands (ev):

   -18.1292 -12.4097 -11.2516  -4.4603

          k = 0.3760 0.6501 0.0000 (  7240 PWs)   bands (ev):

   -18.2005 -12.5849 -10.8813  -4.5739

          k = 0.3760 0.7463 0.0000 (  7256 PWs)   bands (ev):

   -18.5207 -12.7906  -9.7968  -5.0717

          k = 0.3760 0.8425 0.0000 (  7270 PWs)   bands (ev):

   -18.9785 -12.5732  -8.7699  -5.7556

          k = 0.3760 0.9388 0.0000 (  7281 PWs)   bands (ev):

   -19.4277 -11.9894  -8.2293  -6.4054

          k = 0.3760 0.9869 0.0000 (  7270 PWs)   bands (ev):

   -19.6124 -11.6041  -8.2199  -6.6683

          k = 0.3760 1.0831 0.0000 (  7259 PWs)   bands (ev):

   -19.8574 -10.8008  -8.5978  -7.0140

          k = 0.3760 1.1793 0.0000 (  7254 PWs)   bands (ev):

   -19.9073 -10.5365  -8.7919  -7.0839

          k = 0.3760 1.2756 0.0000 (  7269 PWs)   bands (ev):

   -19.7547 -11.2015  -8.3601  -6.8694

          k = 0.4177 0.2893 0.0000 (  7272 PWs)   bands (ev):

   -18.8752 -12.8695  -8.5632  -5.5972

          k = 0.4177 0.3855 0.0000 (  7250 PWs)   bands (ev):

   -18.5517 -13.0174  -9.3342  -5.1109

          k = 0.4177 0.4817 0.0000 (  7250 PWs)   bands (ev):

   -18.3351 -12.7274 -10.3733  -4.7856

          k = 0.4177 0.5779 0.0000 (  7206 PWs)   bands (ev):

   -18.2636 -12.3677 -11.0099  -4.6805

          k = 0.4177 0.6742 0.0000 (  7250 PWs)   bands (ev):

   -18.3368 -12.7329 -10.3613  -4.7882

          k = 0.4177 0.7704 0.0000 (  7252 PWs)   bands (ev):

   -18.5551 -13.0183  -9.3225  -5.1160

          k = 0.4177 0.8666 0.0000 (  7270 PWs)   bands (ev):

   -18.8793 -12.8651  -8.5573  -5.6034

          k = 0.4593 0.2652 0.0000 (  7268 PWs)   bands (ev):

   -18.7748 -13.0722  -8.5083  -5.4427

          k = 0.4593 0.3133 0.0000 (  7264 PWs)   bands (ev):

   -18.6830 -13.1675  -8.6330  -5.3026

          k = 0.4593 0.4095 0.0000 (  7246 PWs)   bands (ev):

   -18.5565 -13.0102  -9.3324  -5.1184

          k = 0.4593 0.5058 0.0000 (  7259 PWs)   bands (ev):

   -18.5082 -12.4927 -10.2680  -5.0605

          k = 0.4593 0.6020 0.0000 (  7242 PWs)   bands (ev):

   -18.5018 -12.2649 -10.5870  -5.0551

          k = 0.4593 0.6982 0.0000 (  7256 PWs)   bands (ev):

   -18.5251 -12.7841  -9.7948  -5.0786

          k = 0.4593 0.7944 0.0000 (  7258 PWs)   bands (ev):

   -18.6104 -13.1481  -8.9132  -5.1945

          k = 0.4593 0.8907 0.0000 (  7268 PWs)   bands (ev):

   -18.7771 -13.0685  -8.5075  -5.4464

          k = 0.4593 0.9388 0.0000 (  7272 PWs)   bands (ev):

   -18.8776 -12.8635  -8.5667  -5.6009

          k = 0.4593 1.0350 0.0000 (  7253 PWs)   bands (ev):

   -19.0584 -12.2186  -9.1188  -5.8781

          k = 0.4593 1.1312 0.0000 (  7258 PWs)   bands (ev):

   -19.1505 -11.6004  -9.7523  -6.0181

          k = 0.4593 1.2274 0.0000 (  7236 PWs)   bands (ev):

   -19.1178 -11.8676  -9.4755  -5.9684

          k = 0.4593 1.3237 0.0000 (  7264 PWs)   bands (ev):

   -18.9728 -12.5782  -8.7800  -5.7472

          k = 0.5010 0.3374 0.0000 (  7262 PWs)   bands (ev):

   -18.6880 -13.1599  -8.6312  -5.3104

          k = 0.5010 0.4336 0.0000 (  7261 PWs)   bands (ev):

   -18.7490 -12.7175  -9.2544  -5.4166

          k = 0.5010 0.5298 0.0000 (  7246 PWs)   bands (ev):

   -18.8050 -12.0846 -10.0556  -5.5122

          k = 0.5010 0.6260 0.0000 (  7246 PWs)   bands (ev):

   -18.8046 -12.0908 -10.0482  -5.5115

          k = 0.5010 0.7223 0.0000 (  7261 PWs)   bands (ev):

   -18.7482 -12.7247  -9.2446  -5.4151

          k = 0.5010 0.8185 0.0000 (  7264 PWs)   bands (ev):

   -18.6876 -13.1628  -8.6271  -5.3096

          k = 0.5427 0.3133 0.0000 (  7270 PWs)   bands (ev):

   -18.7844 -13.0573  -8.5048  -5.4575

          k = 0.5427 0.3614 0.0000 (  7272 PWs)   bands (ev):

   -18.8885 -12.8485  -8.5581  -5.6173

          k = 0.5427 0.4576 0.0000 (  7255 PWs)   bands (ev):

   -19.0742 -12.1985  -9.1010  -5.9012

          k = 0.5427 0.5539 0.0000 (  7254 PWs)   bands (ev):

   -19.1683 -11.5787  -9.7302  -6.0437

          k = 0.5427 0.6501 0.0000 (  7236 PWs)   bands (ev):

   -19.1349 -11.8463  -9.4550  -5.9932

          k = 0.5427 0.7463 0.0000 (  7270 PWs)   bands (ev):

   -18.9865 -12.5602  -8.7664  -5.7675

          k = 0.5427 0.8425 0.0000 (  7270 PWs)   bands (ev):

   -18.7819 -13.0611  -8.5058  -5.4537

          k = 0.5427 0.8907 0.0000 (  7262 PWs)   bands (ev):

   -18.6859 -13.1610  -8.6364  -5.3072

          k = 0.5427 0.9869 0.0000 (  7248 PWs)   bands (ev):

   -18.5506 -13.0130  -9.3452  -5.1094

          k = 0.5427 1.0831 0.0000 (  7257 PWs)   bands (ev):

   -18.4963 -12.5018 -10.2856  -5.0421

          k = 0.5427 1.1793 0.0000 (  7242 PWs)   bands (ev):

   -18.4887 -12.2749 -10.6058  -5.0348

          k = 0.5427 1.2756 0.0000 (  7258 PWs)   bands (ev):

   -18.5158 -12.7906  -9.8104  -5.0642

          k = 0.5427 1.3718 0.0000 (  7260 PWs)   bands (ev):

   -18.6089 -13.1462  -8.9218  -5.1922

          k = 0.5843 0.3855 0.0000 (  7280 PWs)   bands (ev):

   -19.2251 -12.2954  -8.4153  -6.1145

          k = 0.5843 0.4817 0.0000 (  7262 PWs)   bands (ev):

   -19.4663 -11.5284  -8.8740  -6.4651

          k = 0.5843 0.5779 0.0000 (  7258 PWs)   bands (ev):

   -19.5522 -11.0403  -9.2932  -6.5891

          k = 0.5843 0.6742 0.0000 (  7262 PWs)   bands (ev):

   -19.4642 -11.5376  -8.8666  -6.4622

          k = 0.5843 0.7704 0.0000 (  7280 PWs)   bands (ev):

   -19.2215 -12.3038  -8.4129  -6.1092

          k = 0.6260 0.3614 0.0000 (  7279 PWs)   bands (ev):

   -19.4424 -11.9634  -8.2218  -6.4263

          k = 0.6260 0.4095 0.0000 (  7272 PWs)   bands (ev):

   -19.6285 -11.5765  -8.2068  -6.6909

          k = 0.6260 0.5058 0.0000 (  7257 PWs)   bands (ev):

   -19.8751 -10.7718  -8.5762  -7.0385

          k = 0.6260 0.6020 0.0000 (  7256 PWs)   bands (ev):

   -19.9252 -10.5075  -8.7683  -7.1087

          k = 0.6260 0.6982 0.0000 (  7267 PWs)   bands (ev):

   -19.7717 -11.1729  -8.3421  -6.8932

          k = 0.6260 0.7944 0.0000 (  7281 PWs)   bands (ev):

   -19.4375 -11.9721  -8.2244  -6.4193

          k = 0.6260 0.8425 0.0000 (  7284 PWs)   bands (ev):

   -19.2196 -12.3025  -8.4221  -6.1065

          k = 0.6260 0.9388 0.0000 (  7261 PWs)   bands (ev):

   -18.7434 -12.7202  -9.2670  -5.4081

          k = 0.6260 1.0350 0.0000 (  7250 PWs)   bands (ev):

   -18.3311 -12.7249 -10.3867  -4.7794

          k = 0.6260 1.1312 0.0000 (  7188 PWs)   bands (ev):

   -18.1251 -12.4077 -11.2628  -4.4535

          k = 0.6260 1.2274 0.0000 (  7236 PWs)   bands (ev):

   -18.1981 -12.5805 -10.8925  -4.5700

          k = 0.6260 1.3237 0.0000 (  7256 PWs)   bands (ev):

   -18.5246 -12.7777  -9.8064  -5.0780

          k = 0.6260 1.4199 0.0000 (  7268 PWs)   bands (ev):

   -18.9888 -12.5523  -8.7731  -5.7709

          k = 0.6677 0.4336 0.0000 (  7275 PWs)   bands (ev):

   -20.0473 -10.7534  -7.9386  -7.2752

          k = 0.6677 0.5298 0.0000 (  7265 PWs)   bands (ev):

   -20.2685  -9.9827  -8.2125  -7.5810

          k = 0.6677 0.6260 0.0000 (  7265 PWs)   bands (ev):

   -20.2671  -9.9894  -8.2086  -7.5791

          k = 0.6677 0.7223 0.0000 (  7273 PWs)   bands (ev):

   -20.0433 -10.7637  -7.9378  -7.2697

          k = 0.7093 0.4095 0.0000 (  7245 PWs)   bands (ev):

   -20.2741 -10.3153  -7.6921  -7.5874

          k = 0.7093 0.4576 0.0000 (  7278 PWs)   bands (ev):

   -20.4489  -9.8738  -7.8268  -7.6201

          k = 0.7093 0.5539 0.0000 (  7278 PWs)   bands (ev):

   -20.6266  -9.2083  -8.0695  -7.7925

          k = 0.7093 0.6501 0.0000 (  7262 PWs)   bands (ev):

   -20.5650  -9.4826  -7.9855  -7.6844

          k = 0.7093 0.7463 0.0000 (  7245 PWs)   bands (ev):

   -20.2692 -10.3260  -7.6959  -7.5807

          k = 0.7093 0.7944 0.0000 (  7277 PWs)   bands (ev):

   -20.0412 -10.7636  -7.9466  -7.2668

          k = 0.7093 0.8907 0.0000 (  7262 PWs)   bands (ev):

   -19.4585 -11.5365  -8.8876  -6.4542

          k = 0.7093 0.9869 0.0000 (  7246 PWs)   bands (ev):

   -18.7972 -12.0897 -10.0693  -5.5007

          k = 0.7093 1.0831 0.0000 (  7206 PWs)   bands (ev):

   -18.2590 -12.3694 -11.0180  -4.6731

          k = 0.7093 1.1793 0.0000 (  7188 PWs)   bands (ev):

   -18.1300 -12.4127 -11.2464  -4.4617

          k = 0.7093 1.2756 0.0000 (  7240 PWs)   bands (ev):

   -18.5018 -12.2614 -10.5916  -5.0550

          k = 0.7093 1.3718 0.0000 (  7236 PWs)   bands (ev):

   -19.1361 -11.8383  -9.4633  -5.9950

          k = 0.7093 1.4680 0.0000 (  7269 PWs)   bands (ev):

   -19.7747 -11.1630  -8.3469  -6.8974

          k = 0.7510 0.4817 0.0000 (  7263 PWs)   bands (ev):

   -20.8135  -8.9789  -8.3226  -7.2644

          k = 0.7510 0.5779 0.0000 (  7299 PWs)   bands (ev):

   -20.9371  -8.4898  -8.4898  -7.3379

          k = 0.7510 0.6742 0.0000 (  7261 PWs)   bands (ev):

   -20.8105  -8.9886  -8.3185  -7.2648

          k = 0.7927 0.4576 0.0000 (  7285 PWs)   bands (ev):

   -21.0021  -8.5773  -8.5120  -6.9955

          k = 0.7927 0.5058 0.0000 (  7263 PWs)   bands (ev):

   -21.1291  -8.7486  -8.1099  -6.8905

          k = 0.7927 0.6020 0.0000 (  7277 PWs)   bands (ev):

   -21.1920  -8.8333  -7.8551  -6.8934

          k = 0.7927 0.6982 0.0000 (  7287 PWs)   bands (ev):

   -20.9982  -8.5721  -8.5226  -7.0000

          k = 0.7927 0.7463 0.0000 (  7265 PWs)   bands (ev):

   -20.8083  -8.9905  -8.3154  -7.2729

          k = 0.7927 0.8425 0.0000 (  7265 PWs)   bands (ev):

   -20.2607  -9.9951  -8.2258  -7.5704

          k = 0.7927 0.9388 0.0000 (  7258 PWs)   bands (ev):

   -19.5430 -11.0534  -9.3048  -6.5761

          k = 0.7927 1.0350 0.0000 (  7248 PWs)   bands (ev):

   -18.7965 -12.1021 -10.0545  -5.4994

          k = 0.7927 1.1312 0.0000 (  7252 PWs)   bands (ev):

   -18.3347 -12.7358 -10.3625  -4.7848

          k = 0.7927 1.2274 0.0000 (  7261 PWs)   bands (ev):

   -18.5085 -12.4996 -10.2579  -5.0607

          k = 0.7927 1.3237 0.0000 (  7256 PWs)   bands (ev):

   -19.1679 -11.5824  -9.7264  -6.0431

          k = 0.7927 1.4199 0.0000 (  7254 PWs)   bands (ev):

   -19.9258 -10.5037  -8.7712  -7.1096

          k = 0.7927 1.5161 0.0000 (  7262 PWs)   bands (ev):

   -20.5672  -9.4740  -7.9884  -7.6870

          k = 0.8343 0.5298 0.0000 (  7284 PWs)   bands (ev):

   -21.3880  -9.0965  -7.3131  -6.5236

          k = 0.8343 0.6260 0.0000 (  7286 PWs)   bands (ev):

   -21.3864  -9.0944  -7.3194  -6.5246

          k = 0.8760 0.5058 0.0000 (  7285 PWs)   bands (ev):

   -21.5194  -9.2726  -6.8932  -6.2869

          k = 0.8760 0.5539 0.0000 (  7271 PWs)   bands (ev):

   -21.5851  -9.3606  -6.6409  -6.1965

          k = 0.8760 0.6501 0.0000 (  7285 PWs)   bands (ev):

   -21.5170  -9.2694  -6.9016  -6.2907

          k = 0.8760 0.6982 0.0000 (  7286 PWs)   bands (ev):

   -21.3840  -9.0912  -7.3247  -6.5311

          k = 0.8760 0.7944 0.0000 (  7299 PWs)   bands (ev):

   -20.9303  -8.5062  -8.4806  -7.3489

          k = 0.8760 0.8907 0.0000 (  7263 PWs)   bands (ev):

   -20.2580 -10.0084  -8.2180  -7.5666

          k = 0.8760 0.9869 0.0000 (  7260 PWs)   bands (ev):

   -19.4544 -11.5549  -8.8729  -6.4483

          k = 0.8760 1.0831 0.0000 (  7261 PWs)   bands (ev):

   -18.7418 -12.7347  -9.2473  -5.4053

          k = 0.8760 1.1793 0.0000 (  7252 PWs)   bands (ev):

   -18.5575 -13.0148  -9.3216  -5.1198

          k = 0.8760 1.2756 0.0000 (  7255 PWs)   bands (ev):

   -19.0724 -12.2073  -9.0923  -5.8985

          k = 0.8760 1.3718 0.0000 (  7259 PWs)   bands (ev):

   -19.8732 -10.7803  -8.5704  -7.0359

          k = 0.8760 1.4680 0.0000 (  7278 PWs)   bands (ev):

   -20.6259  -9.2120  -8.0685  -7.7907

          k = 0.8760 1.5642 0.0000 (  7277 PWs)   bands (ev):

   -21.1928  -8.8343  -7.8516  -6.8939

          k = 0.9177 0.5779 0.0000 (  7281 PWs)   bands (ev):

   -21.7175  -9.5376  -6.1497  -5.9482

          k = 0.9593 0.5539 0.0000 (  7275 PWs)   bands (ev):

   -21.7841  -9.6266  -5.8855  -5.8154

          k = 0.9593 0.6020 0.0000 (  7273 PWs)   bands (ev):

   -21.7833  -9.6255  -5.8889  -5.8169

          k = 0.9593 0.6501 0.0000 (  7281 PWs)   bands (ev):

   -21.7151  -9.5344  -6.1591  -5.9530

          k = 0.9593 0.7463 0.0000 (  7290 PWs)   bands (ev):

   -21.3809  -9.0869  -7.3373  -6.5331

          k = 0.9593 0.8425 0.0000 (  7265 PWs)   bands (ev):

   -20.8023  -9.0100  -8.3074  -7.2737

          k = 0.9593 0.9388 0.0000 (  7275 PWs)   bands (ev):

   -20.0334 -10.7843  -7.9448  -7.2559

          k = 0.9593 1.0350 0.0000 (  7280 PWs)   bands (ev):

   -19.2124 -12.3193  -8.4171  -6.0959

          k = 0.9593 1.1312 0.0000 (  7264 PWs)   bands (ev):

   -18.6851 -13.1666  -8.6279  -5.3057

          k = 0.9593 1.2274 0.0000 (  7272 PWs)   bands (ev):

   -18.8860 -12.8546  -8.5548  -5.6135

          k = 0.9593 1.3237 0.0000 (  7276 PWs)   bands (ev):

   -19.6245 -11.5862  -8.2052  -6.6852

          k = 0.9593 1.4199 0.0000 (  7276 PWs)   bands (ev):

   -20.4453  -9.8842  -7.8219  -7.6199

          k = 0.9593 1.5161 0.0000 (  7263 PWs)   bands (ev):

   -21.1268  -8.7455  -8.1183  -6.8913

          k = 0.9593 1.6123 0.0000 (  7271 PWs)   bands (ev):

   -21.5843  -9.3595  -6.6443  -6.1974

     Writing output data file BN.save/
 
     init_run     :      0.15s CPU      0.26s WALL (       1 calls)
     electrons    :     25.56s CPU     26.40s WALL (       1 calls)

     Called by init_run:
     wfcinit      :      0.00s CPU      0.00s WALL (       1 calls)
     wfcinit:atom :      0.26s CPU      0.35s WALL (     111 calls)
     wfcinit:wfcr :      8.61s CPU      8.78s WALL (     111 calls)
     potinit      :      0.01s CPU      0.04s WALL (       1 calls)
     hinit0       :      0.12s CPU      0.20s WALL (       1 calls)

     Called by electrons:
     c_bands      :     25.56s CPU     26.35s WALL (       1 calls)
     v_of_rho     :      0.01s CPU      0.01s WALL (       1 calls)
     v_h          :      0.00s CPU      0.00s WALL (       1 calls)
     v_xc         :      0.00s CPU      0.00s WALL (       1 calls)

     Called by c_bands:
     init_us_2    :      0.12s CPU      0.14s WALL (     111 calls)
     cegterg      :     15.34s CPU     15.72s WALL (     111 calls)

     Called by sum_band:

     Called by *egterg:
     h_psi        :     22.05s CPU     22.49s WALL (    1737 calls)
     g_psi        :      0.11s CPU      0.12s WALL (    1515 calls)
     cdiaghg      :      0.13s CPU      0.14s WALL (    1626 calls)
     cegterg:over :      0.56s CPU      0.58s WALL (    1515 calls)
     cegterg:upda :      0.39s CPU      0.45s WALL (    1515 calls)
     cegterg:last :      0.17s CPU      0.17s WALL (     485 calls)

     Called by h_psi:
     h_psi:pot    :     21.86s CPU     22.17s WALL (    1737 calls)
     h_psi:calbec :      0.60s CPU      0.61s WALL (    1737 calls)
     vloc_psi     :     20.66s CPU     20.94s WALL (    1737 calls)
     add_vuspsi   :      0.58s CPU      0.59s WALL (    1737 calls)

     General routines
     calbec       :      0.59s CPU      0.60s WALL (    1737 calls)
     fft          :      0.01s CPU      0.08s WALL (       4 calls)
     fftw         :     17.64s CPU     17.87s WALL (   18638 calls)
     davcio       :      0.03s CPU      0.26s WALL (     222 calls)
 
     Parallel routines
 
     PWSCF        :     26.05s CPU     27.80s WALL

 
   This run was terminated on:   1:39:43   1Jul2020            

=------------------------------------------------------------------------------=
   JOB DONE.
=------------------------------------------------------------------------------=
