
     Program PWSCF v.6.4.1 starts on 26Apr2020 at 19:35:33 

     This program is part of the open-source Quantum ESPRESSO suite
     for quantum simulation of materials; please cite
         "P. Giannozzi et al., J. Phys.:Condens. Matter 21 395502 (2009);
         "P. Giannozzi et al., J. Phys.:Condens. Matter 29 465901 (2017);
          URL http://www.quantum-espresso.org", 
     in publications or presentations arising from this work. More details at
     http://www.quantum-espresso.org/quote

     Parallel version (MPI & OpenMP), running on     304 processor cores
     Number of MPI processes:                76
     Threads/MPI process:                     4

     MPI processes distributed on     2 nodes
     K-points division:     npool     =      76
     Waiting for input...
     Reading input from standard input
Warning: card &IONS ignored
Warning: card / ignored
Warning: card &CELL ignored
Warning: card / ignored

     Current dimensions of program PWSCF are:
     Max number of different atomic species (ntypx) = 10
     Max number of k-points (npk) =  40000
     Max angular momentum in pseudopotentials (lmaxx) =  3

     Atomic positions and unit cell read from directory:
     ./BN.save/
 
     Message from routine readpp:
     file ./BN.save/b.cpi.UPF not found
     Message from routine readpp:
     file ./BN.save/n.cpi.UPF not found
               file b.cpi.UPF: wavefunction(s)  3d 4f renormalized
               file n.cpi.UPF: wavefunction(s)  3d 4f renormalized

     Subspace diagonalization in iterative solution of the eigenvalue problem:
     a serial algorithm will be used

 
     G-vector sticks info
     --------------------
     sticks:   dense  smooth     PW     G-vecs:    dense   smooth      PW
     Sum         433     433    127                19375    19375    3247
 


     bravais-lattice index     =            4
     lattice parameter (alat)  =       4.7319  a.u.
     unit-cell volume          =     244.0890 (a.u.)^3
     number of atoms/cell      =            4
     number of atomic types    =            2
     number of electrons       =        16.00
     number of Kohn-Sham states=          820
     kinetic-energy cutoff     =      70.0000  Ry
     charge density cutoff     =     280.0000  Ry
     Exchange-correlation      = SLA  PZ   NOGX NOGC ( 1  1  0  0 0 0)

     celldm(1)=   4.731874  celldm(2)=   0.000000  celldm(3)=   2.660224
     celldm(4)=   0.000000  celldm(5)=   0.000000  celldm(6)=   0.000000

     crystal axes: (cart. coord. in units of alat)
               a(1) = (   1.000000   0.000000   0.000000 )  
               a(2) = (  -0.500000   0.866025   0.000000 )  
               a(3) = (   0.000000   0.000000   2.660224 )  

     reciprocal axes: (cart. coord. in units 2 pi/alat)
               b(1) = (  1.000000  0.577350  0.000000 )  
               b(2) = (  0.000000  1.154701  0.000000 )  
               b(3) = (  0.000000  0.000000  0.375908 )  


     PseudoPot. # 1 for B  read from file:
     ./b.cpi.UPF
     MD5 check sum: aadced629ac320abbac2d4088521b25e
     Pseudo is Norm-conserving + core correction, Zval =  3.0
     Generated by new atomic code, or converted to UPF format
     Using radial grid of  453 points,  3 beta functions with: 
                l(1) =   0
                l(2) =   1
                l(3) =   2

     PseudoPot. # 2 for N  read from file:
     ./n.cpi.UPF
     MD5 check sum: ff6dad263d6aed986b71703111ab3f52
     Pseudo is Norm-conserving, Zval =  5.0
     Generated by new atomic code, or converted to UPF format
     Using radial grid of  467 points,  3 beta functions with: 
                l(1) =   0
                l(2) =   1
                l(3) =   2

     atomic species   valence    mass     pseudopotential
        B              3.00    10.81100     B ( 1.00)
        N              5.00    14.00700     N ( 1.00)

     24 Sym. Ops., with inversion, found (12 have fractional translation)


                                    s                        frac. trans.

      isym =  1     identity                                     

 cryst.   s( 1) = (     1          0          0      )
                  (     0          1          0      )
                  (     0          0          1      )

 cart.    s( 1) = (  1.0000000  0.0000000  0.0000000 )
                  (  0.0000000  1.0000000  0.0000000 )
                  (  0.0000000  0.0000000  1.0000000 )


      isym =  2     180 deg rotation - cart. axis [0,0,1]        

 cryst.   s( 2) = (    -1          0          0      )    f =(  0.0000000 )
                  (     0         -1          0      )       (  0.0000000 )
                  (     0          0          1      )       ( -0.5000000 )

 cart.    s( 2) = ( -1.0000000  0.0000000  0.0000000 )    f =(  0.0000000 )
                  (  0.0000000 -1.0000000  0.0000000 )       (  0.0000000 )
                  (  0.0000000  0.0000000  1.0000000 )       ( -1.3301118 )


      isym =  3     180 deg rotation - cart. axis [0,1,0]        

 cryst.   s( 3) = (    -1          0          0      )    f =(  0.0000000 )
                  (     1          1          0      )       (  0.0000000 )
                  (     0          0         -1      )       (  0.5000000 )

 cart.    s( 3) = ( -1.0000000  0.0000000  0.0000000 )    f =(  0.0000000 )
                  (  0.0000000  1.0000000  0.0000000 )       (  0.0000000 )
                  (  0.0000000  0.0000000 -1.0000000 )       (  1.3301118 )


      isym =  4     180 deg rotation - cart. axis [1,0,0]        

 cryst.   s( 4) = (     1          0          0      )
                  (    -1         -1          0      )
                  (     0          0         -1      )

 cart.    s( 4) = (  1.0000000  0.0000000  0.0000000 )
                  (  0.0000000 -1.0000000  0.0000000 )
                  (  0.0000000  0.0000000 -1.0000000 )


      isym =  5      60 deg rotation - cryst. axis [0,0,1]       

 cryst.   s( 5) = (     1          1          0      )    f =(  0.0000000 )
                  (    -1          0          0      )       (  0.0000000 )
                  (     0          0          1      )       ( -0.5000000 )

 cart.    s( 5) = (  0.5000000 -0.8660254  0.0000000 )    f =(  0.0000000 )
                  (  0.8660254  0.5000000  0.0000000 )       (  0.0000000 )
                  (  0.0000000  0.0000000  1.0000000 )       ( -1.3301118 )


      isym =  6      60 deg rotation - cryst. axis [0,0,-1]      

 cryst.   s( 6) = (     0         -1          0      )    f =( -0.0000000 )
                  (     1          1          0      )       ( -0.0000000 )
                  (     0          0          1      )       ( -0.5000000 )

 cart.    s( 6) = (  0.5000000  0.8660254  0.0000000 )    f =(  0.0000000 )
                  ( -0.8660254  0.5000000  0.0000000 )       ( -0.0000000 )
                  (  0.0000000  0.0000000  1.0000000 )       ( -1.3301118 )


      isym =  7     120 deg rotation - cryst. axis [0,0,1]       

 cryst.   s( 7) = (     0          1          0      )
                  (    -1         -1          0      )
                  (     0          0          1      )

 cart.    s( 7) = ( -0.5000000 -0.8660254  0.0000000 )
                  (  0.8660254 -0.5000000  0.0000000 )
                  (  0.0000000  0.0000000  1.0000000 )


      isym =  8     120 deg rotation - cryst. axis [0,0,-1]      

 cryst.   s( 8) = (    -1         -1          0      )
                  (     1          0          0      )
                  (     0          0          1      )

 cart.    s( 8) = ( -0.5000000  0.8660254  0.0000000 )
                  ( -0.8660254 -0.5000000  0.0000000 )
                  (  0.0000000  0.0000000  1.0000000 )


      isym =  9     180 deg rotation - cryst. axis [1,-1,0]      

 cryst.   s( 9) = (     0         -1          0      )    f =(  0.0000000 )
                  (    -1          0          0      )       (  0.0000000 )
                  (     0          0         -1      )       (  0.5000000 )

 cart.    s( 9) = (  0.5000000 -0.8660254  0.0000000 )    f =(  0.0000000 )
                  ( -0.8660254 -0.5000000  0.0000000 )       (  0.0000000 )
                  (  0.0000000  0.0000000 -1.0000000 )       (  1.3301118 )


      isym = 10     180 deg rotation - cryst. axis [2,1,0]       

 cryst.   s(10) = (     1          1          0      )    f =(  0.0000000 )
                  (     0         -1          0      )       ( -0.0000000 )
                  (     0          0         -1      )       (  0.5000000 )

 cart.    s(10) = (  0.5000000  0.8660254  0.0000000 )    f =(  0.0000000 )
                  (  0.8660254 -0.5000000  0.0000000 )       ( -0.0000000 )
                  (  0.0000000  0.0000000 -1.0000000 )       (  1.3301118 )


      isym = 11     180 deg rotation - cryst. axis [0,1,0]       

 cryst.   s(11) = (    -1         -1          0      )
                  (     0          1          0      )
                  (     0          0         -1      )

 cart.    s(11) = ( -0.5000000 -0.8660254  0.0000000 )
                  ( -0.8660254  0.5000000  0.0000000 )
                  (  0.0000000  0.0000000 -1.0000000 )


      isym = 12     180 deg rotation - cryst. axis [1,1,0]       

 cryst.   s(12) = (     0          1          0      )
                  (     1          0          0      )
                  (     0          0         -1      )

 cart.    s(12) = ( -0.5000000  0.8660254  0.0000000 )
                  (  0.8660254  0.5000000  0.0000000 )
                  (  0.0000000  0.0000000 -1.0000000 )


      isym = 13     inversion                                    

 cryst.   s(13) = (    -1          0          0      )
                  (     0         -1          0      )
                  (     0          0         -1      )

 cart.    s(13) = ( -1.0000000  0.0000000  0.0000000 )
                  (  0.0000000 -1.0000000  0.0000000 )
                  (  0.0000000  0.0000000 -1.0000000 )


      isym = 14     inv. 180 deg rotation - cart. axis [0,0,1]   

 cryst.   s(14) = (     1          0          0      )    f =(  0.0000000 )
                  (     0          1          0      )       (  0.0000000 )
                  (     0          0         -1      )       (  0.5000000 )

 cart.    s(14) = (  1.0000000  0.0000000  0.0000000 )    f =(  0.0000000 )
                  (  0.0000000  1.0000000  0.0000000 )       (  0.0000000 )
                  (  0.0000000  0.0000000 -1.0000000 )       (  1.3301118 )


      isym = 15     inv. 180 deg rotation - cart. axis [0,1,0]   

 cryst.   s(15) = (     1          0          0      )    f =(  0.0000000 )
                  (    -1         -1          0      )       (  0.0000000 )
                  (     0          0          1      )       ( -0.5000000 )

 cart.    s(15) = (  1.0000000  0.0000000  0.0000000 )    f =(  0.0000000 )
                  (  0.0000000 -1.0000000  0.0000000 )       (  0.0000000 )
                  (  0.0000000  0.0000000  1.0000000 )       ( -1.3301118 )


      isym = 16     inv. 180 deg rotation - cart. axis [1,0,0]   

 cryst.   s(16) = (    -1          0          0      )
                  (     1          1          0      )
                  (     0          0          1      )

 cart.    s(16) = ( -1.0000000  0.0000000  0.0000000 )
                  (  0.0000000  1.0000000  0.0000000 )
                  (  0.0000000  0.0000000  1.0000000 )


      isym = 17     inv.  60 deg rotation - cryst. axis [0,0,1]  

 cryst.   s(17) = (    -1         -1          0      )    f =(  0.0000000 )
                  (     1          0          0      )       (  0.0000000 )
                  (     0          0         -1      )       (  0.5000000 )

 cart.    s(17) = ( -0.5000000  0.8660254  0.0000000 )    f =(  0.0000000 )
                  ( -0.8660254 -0.5000000  0.0000000 )       (  0.0000000 )
                  (  0.0000000  0.0000000 -1.0000000 )       (  1.3301118 )


      isym = 18     inv.  60 deg rotation - cryst. axis [0,0,-1] 

 cryst.   s(18) = (     0          1          0      )    f =(  0.0000000 )
                  (    -1         -1          0      )       ( -0.0000000 )
                  (     0          0         -1      )       (  0.5000000 )

 cart.    s(18) = ( -0.5000000 -0.8660254  0.0000000 )    f =(  0.0000000 )
                  (  0.8660254 -0.5000000  0.0000000 )       ( -0.0000000 )
                  (  0.0000000  0.0000000 -1.0000000 )       (  1.3301118 )


      isym = 19     inv. 120 deg rotation - cryst. axis [0,0,1]  

 cryst.   s(19) = (     0         -1          0      )
                  (     1          1          0      )
                  (     0          0         -1      )

 cart.    s(19) = (  0.5000000  0.8660254  0.0000000 )
                  ( -0.8660254  0.5000000  0.0000000 )
                  (  0.0000000  0.0000000 -1.0000000 )


      isym = 20     inv. 120 deg rotation - cryst. axis [0,0,-1] 

 cryst.   s(20) = (     1          1          0      )
                  (    -1          0          0      )
                  (     0          0         -1      )

 cart.    s(20) = (  0.5000000 -0.8660254  0.0000000 )
                  (  0.8660254  0.5000000  0.0000000 )
                  (  0.0000000  0.0000000 -1.0000000 )


      isym = 21     inv. 180 deg rotation - cryst. axis [1,-1,0] 

 cryst.   s(21) = (     0          1          0      )    f =( -0.0000000 )
                  (     1          0          0      )       (  0.0000000 )
                  (     0          0          1      )       ( -0.5000000 )

 cart.    s(21) = ( -0.5000000  0.8660254  0.0000000 )    f =( -0.0000000 )
                  (  0.8660254  0.5000000  0.0000000 )       (  0.0000000 )
                  (  0.0000000  0.0000000  1.0000000 )       ( -1.3301118 )


      isym = 22     inv. 180 deg rotation - cryst. axis [2,1,0]  

 cryst.   s(22) = (    -1         -1          0      )    f =(  0.0000000 )
                  (     0          1          0      )       ( -0.0000000 )
                  (     0          0          1      )       ( -0.5000000 )

 cart.    s(22) = ( -0.5000000 -0.8660254  0.0000000 )    f =(  0.0000000 )
                  ( -0.8660254  0.5000000  0.0000000 )       ( -0.0000000 )
                  (  0.0000000  0.0000000  1.0000000 )       ( -1.3301118 )


      isym = 23     inv. 180 deg rotation - cryst. axis [0,1,0]  

 cryst.   s(23) = (     1          1          0      )
                  (     0         -1          0      )
                  (     0          0          1      )

 cart.    s(23) = (  0.5000000  0.8660254  0.0000000 )
                  (  0.8660254 -0.5000000  0.0000000 )
                  (  0.0000000  0.0000000  1.0000000 )


      isym = 24     inv. 180 deg rotation - cryst. axis [1,1,0]  

 cryst.   s(24) = (     0         -1          0      )
                  (    -1          0          0      )
                  (     0          0          1      )

 cart.    s(24) = (  0.5000000 -0.8660254  0.0000000 )
                  ( -0.8660254 -0.5000000  0.0000000 )
                  (  0.0000000  0.0000000  1.0000000 )


     point group D_6h(6/mmm)
     there are 12 classes
     the character table:

       E     2C6   2C3   C2    3C2'  3C2'' i     2S3   2S6   s_h   3s_d  3s_v 
A_1g   1.00  1.00  1.00  1.00  1.00  1.00  1.00  1.00  1.00  1.00  1.00  1.00
A_2g   1.00  1.00  1.00  1.00 -1.00 -1.00  1.00  1.00  1.00  1.00 -1.00 -1.00
B_1g   1.00 -1.00  1.00 -1.00  1.00 -1.00  1.00 -1.00  1.00 -1.00  1.00 -1.00
B_2g   1.00 -1.00  1.00 -1.00 -1.00  1.00  1.00 -1.00  1.00 -1.00 -1.00  1.00
E_1g   2.00  1.00 -1.00 -2.00  0.00  0.00  2.00  1.00 -1.00 -2.00  0.00  0.00
E_2g   2.00 -1.00 -1.00  2.00  0.00  0.00  2.00 -1.00 -1.00  2.00  0.00  0.00
A_1u   1.00  1.00  1.00  1.00  1.00  1.00 -1.00 -1.00 -1.00 -1.00 -1.00 -1.00
A_2u   1.00  1.00  1.00  1.00 -1.00 -1.00 -1.00 -1.00 -1.00 -1.00  1.00  1.00
B_1u   1.00 -1.00  1.00 -1.00  1.00 -1.00 -1.00  1.00 -1.00  1.00 -1.00  1.00
B_2u   1.00 -1.00  1.00 -1.00 -1.00  1.00 -1.00  1.00 -1.00  1.00  1.00 -1.00
E_1u   2.00  1.00 -1.00 -2.00  0.00  0.00 -2.00 -1.00  1.00  2.00  0.00  0.00
E_2u   2.00 -1.00 -1.00  2.00  0.00  0.00 -2.00  1.00  1.00 -2.00  0.00  0.00

     the symmetry operations in each class and the name of the first element:

     E        1
          identity                                               
     2C6      5    6
           60 deg rotation - cryst. axis [0,0,1]                 
     2C3      7    8
          120 deg rotation - cryst. axis [0,0,1]                 
     C2       2
          180 deg rotation - cart. axis [0,0,1]                  
     3C2'     4   12   11
          180 deg rotation - cart. axis [1,0,0]                  
     3C2''    3    9   10
          180 deg rotation - cart. axis [0,1,0]                  
     i       13
          inversion                                              
     2S3     17   18
          inv.  60 deg rotation - cryst. axis [0,0,1]            
     2S6     19   20
          inv. 120 deg rotation - cryst. axis [0,0,1]            
     s_h     14
          inv. 180 deg rotation - cart. axis [0,0,1]             
     3s_d    16   24   23
          inv. 180 deg rotation - cart. axis [1,0,0]             
     3s_v    15   21   22
          inv. 180 deg rotation - cart. axis [0,1,0]             

   Cartesian axes

     site n.     atom                  positions (alat units)
         1           B   tau(   1) = (  -0.0000000   0.5773503   0.6650559  )
         2           B   tau(   2) = (   0.5000000   0.2886751   1.9951677  )
         3           N   tau(   3) = (  -0.0000000   0.5773503   1.9951677  )
         4           N   tau(   4) = (   0.5000000   0.2886751   0.6650559  )

   Crystallographic axes

     site n.     atom                  positions (cryst. coord.)
         1           B   tau(   1) = (  0.3333333  0.6666667  0.2500000  )
         2           B   tau(   2) = (  0.6666667  0.3333333  0.7500000  )
         3           N   tau(   3) = (  0.3333333  0.6666667  0.7500000  )
         4           N   tau(   4) = (  0.6666667  0.3333333  0.2500000  )

     number of k points=    76
                       cart. coord. in units 2pi/alat
        k(    1) = (   0.0000000   0.0000000   0.0000000), wk =   0.0023148
        k(    2) = (   0.0000000   0.0000000   0.0626514), wk =   0.0046296
        k(    3) = (   0.0000000   0.0000000   0.1253027), wk =   0.0046296
        k(    4) = (   0.0000000   0.0000000   0.1879541), wk =   0.0023148
        k(    5) = (   0.0000000   0.0962250   0.0000000), wk =   0.0138889
        k(    6) = (   0.0000000   0.0962250   0.0626514), wk =   0.0277778
        k(    7) = (   0.0000000   0.0962250   0.1253027), wk =   0.0277778
        k(    8) = (   0.0000000   0.0962250   0.1879541), wk =   0.0138889
        k(    9) = (   0.0000000   0.1924501   0.0000000), wk =   0.0138889
        k(   10) = (   0.0000000   0.1924501   0.0626514), wk =   0.0277778
        k(   11) = (   0.0000000   0.1924501   0.1253027), wk =   0.0277778
        k(   12) = (   0.0000000   0.1924501   0.1879541), wk =   0.0138889
        k(   13) = (   0.0000000   0.2886751   0.0000000), wk =   0.0138889
        k(   14) = (   0.0000000   0.2886751   0.0626514), wk =   0.0277778
        k(   15) = (   0.0000000   0.2886751   0.1253027), wk =   0.0277778
        k(   16) = (   0.0000000   0.2886751   0.1879541), wk =   0.0138889
        k(   17) = (   0.0000000   0.3849002   0.0000000), wk =   0.0138889
        k(   18) = (   0.0000000   0.3849002   0.0626514), wk =   0.0277778
        k(   19) = (   0.0000000   0.3849002   0.1253027), wk =   0.0277778
        k(   20) = (   0.0000000   0.3849002   0.1879541), wk =   0.0138889
        k(   21) = (   0.0000000   0.4811252   0.0000000), wk =   0.0138889
        k(   22) = (   0.0000000   0.4811252   0.0626514), wk =   0.0277778
        k(   23) = (   0.0000000   0.4811252   0.1253027), wk =   0.0277778
        k(   24) = (   0.0000000   0.4811252   0.1879541), wk =   0.0138889
        k(   25) = (   0.0000000   0.5773503   0.0000000), wk =   0.0069444
        k(   26) = (   0.0000000   0.5773503   0.0626514), wk =   0.0138889
        k(   27) = (   0.0000000   0.5773503   0.1253027), wk =   0.0138889
        k(   28) = (   0.0000000   0.5773503   0.1879541), wk =   0.0069444
        k(   29) = (   0.0833333   0.1443376   0.0000000), wk =   0.0138889
        k(   30) = (   0.0833333   0.1443376   0.0626514), wk =   0.0277778
        k(   31) = (   0.0833333   0.1443376   0.1253027), wk =   0.0277778
        k(   32) = (   0.0833333   0.1443376   0.1879541), wk =   0.0138889
        k(   33) = (   0.0833333   0.2405626   0.0000000), wk =   0.0277778
        k(   34) = (   0.0833333   0.2405626   0.0626514), wk =   0.0555556
        k(   35) = (   0.0833333   0.2405626   0.1253027), wk =   0.0555556
        k(   36) = (   0.0833333   0.2405626   0.1879541), wk =   0.0277778
        k(   37) = (   0.0833333   0.3367877   0.0000000), wk =   0.0277778
        k(   38) = (   0.0833333   0.3367877   0.0626514), wk =   0.0555556
        k(   39) = (   0.0833333   0.3367877   0.1253027), wk =   0.0555556
        k(   40) = (   0.0833333   0.3367877   0.1879541), wk =   0.0277778
        k(   41) = (   0.0833333   0.4330127   0.0000000), wk =   0.0277778
        k(   42) = (   0.0833333   0.4330127   0.0626514), wk =   0.0555556
        k(   43) = (   0.0833333   0.4330127   0.1253027), wk =   0.0555556
        k(   44) = (   0.0833333   0.4330127   0.1879541), wk =   0.0277778
        k(   45) = (   0.0833333   0.5292377   0.0000000), wk =   0.0277778
        k(   46) = (   0.0833333   0.5292377   0.0626514), wk =   0.0555556
        k(   47) = (   0.0833333   0.5292377   0.1253027), wk =   0.0555556
        k(   48) = (   0.0833333   0.5292377   0.1879541), wk =   0.0277778
        k(   49) = (   0.1666667   0.2886751   0.0000000), wk =   0.0138889
        k(   50) = (   0.1666667   0.2886751   0.0626514), wk =   0.0277778
        k(   51) = (   0.1666667   0.2886751   0.1253027), wk =   0.0277778
        k(   52) = (   0.1666667   0.2886751   0.1879541), wk =   0.0138889
        k(   53) = (   0.1666667   0.3849002   0.0000000), wk =   0.0277778
        k(   54) = (   0.1666667   0.3849002   0.0626514), wk =   0.0555556
        k(   55) = (   0.1666667   0.3849002   0.1253027), wk =   0.0555556
        k(   56) = (   0.1666667   0.3849002   0.1879541), wk =   0.0277778
        k(   57) = (   0.1666667   0.4811252   0.0000000), wk =   0.0277778
        k(   58) = (   0.1666667   0.4811252   0.0626514), wk =   0.0555556
        k(   59) = (   0.1666667   0.4811252   0.1253027), wk =   0.0555556
        k(   60) = (   0.1666667   0.4811252   0.1879541), wk =   0.0277778
        k(   61) = (   0.1666667   0.5773503   0.0000000), wk =   0.0138889
        k(   62) = (   0.1666667   0.5773503   0.0626514), wk =   0.0277778
        k(   63) = (   0.1666667   0.5773503   0.1253027), wk =   0.0277778
        k(   64) = (   0.1666667   0.5773503   0.1879541), wk =   0.0138889
        k(   65) = (   0.2500000   0.4330127   0.0000000), wk =   0.0138889
        k(   66) = (   0.2500000   0.4330127   0.0626514), wk =   0.0277778
        k(   67) = (   0.2500000   0.4330127   0.1253027), wk =   0.0277778
        k(   68) = (   0.2500000   0.4330127   0.1879541), wk =   0.0138889
        k(   69) = (   0.2500000   0.5292377   0.0000000), wk =   0.0277778
        k(   70) = (   0.2500000   0.5292377   0.0626514), wk =   0.0555556
        k(   71) = (   0.2500000   0.5292377   0.1253027), wk =   0.0555556
        k(   72) = (   0.2500000   0.5292377   0.1879541), wk =   0.0277778
        k(   73) = (   0.3333333   0.5773503   0.0000000), wk =   0.0046296
        k(   74) = (   0.3333333   0.5773503   0.0626514), wk =   0.0092593
        k(   75) = (   0.3333333   0.5773503   0.1253027), wk =   0.0092593
        k(   76) = (   0.3333333   0.5773503   0.1879541), wk =   0.0046296

                       cryst. coord.
        k(    1) = (   0.0000000   0.0000000   0.0000000), wk =   0.0023148
        k(    2) = (   0.0000000   0.0000000   0.1666667), wk =   0.0046296
        k(    3) = (   0.0000000   0.0000000   0.3333333), wk =   0.0046296
        k(    4) = (   0.0000000   0.0000000   0.5000000), wk =   0.0023148
        k(    5) = (   0.0000000   0.0833333   0.0000000), wk =   0.0138889
        k(    6) = (   0.0000000   0.0833333   0.1666667), wk =   0.0277778
        k(    7) = (   0.0000000   0.0833333   0.3333333), wk =   0.0277778
        k(    8) = (   0.0000000   0.0833333   0.5000000), wk =   0.0138889
        k(    9) = (   0.0000000   0.1666667   0.0000000), wk =   0.0138889
        k(   10) = (   0.0000000   0.1666667   0.1666667), wk =   0.0277778
        k(   11) = (   0.0000000   0.1666667   0.3333333), wk =   0.0277778
        k(   12) = (   0.0000000   0.1666667   0.5000000), wk =   0.0138889
        k(   13) = (   0.0000000   0.2500000   0.0000000), wk =   0.0138889
        k(   14) = (   0.0000000   0.2500000   0.1666667), wk =   0.0277778
        k(   15) = (   0.0000000   0.2500000   0.3333333), wk =   0.0277778
        k(   16) = (   0.0000000   0.2500000   0.5000000), wk =   0.0138889
        k(   17) = (   0.0000000   0.3333333   0.0000000), wk =   0.0138889
        k(   18) = (   0.0000000   0.3333333   0.1666667), wk =   0.0277778
        k(   19) = (   0.0000000   0.3333333   0.3333333), wk =   0.0277778
        k(   20) = (   0.0000000   0.3333333   0.5000000), wk =   0.0138889
        k(   21) = (   0.0000000   0.4166667   0.0000000), wk =   0.0138889
        k(   22) = (   0.0000000   0.4166667   0.1666667), wk =   0.0277778
        k(   23) = (   0.0000000   0.4166667   0.3333333), wk =   0.0277778
        k(   24) = (   0.0000000   0.4166667   0.5000000), wk =   0.0138889
        k(   25) = (   0.0000000   0.5000000   0.0000000), wk =   0.0069444
        k(   26) = (   0.0000000   0.5000000   0.1666667), wk =   0.0138889
        k(   27) = (   0.0000000   0.5000000   0.3333333), wk =   0.0138889
        k(   28) = (   0.0000000   0.5000000   0.5000000), wk =   0.0069444
        k(   29) = (   0.0833333   0.0833333   0.0000000), wk =   0.0138889
        k(   30) = (   0.0833333   0.0833333   0.1666667), wk =   0.0277778
        k(   31) = (   0.0833333   0.0833333   0.3333333), wk =   0.0277778
        k(   32) = (   0.0833333   0.0833333   0.5000000), wk =   0.0138889
        k(   33) = (   0.0833333   0.1666667   0.0000000), wk =   0.0277778
        k(   34) = (   0.0833333   0.1666667   0.1666667), wk =   0.0555556
        k(   35) = (   0.0833333   0.1666667   0.3333333), wk =   0.0555556
        k(   36) = (   0.0833333   0.1666667   0.5000000), wk =   0.0277778
        k(   37) = (   0.0833333   0.2500000   0.0000000), wk =   0.0277778
        k(   38) = (   0.0833333   0.2500000   0.1666667), wk =   0.0555556
        k(   39) = (   0.0833333   0.2500000   0.3333333), wk =   0.0555556
        k(   40) = (   0.0833333   0.2500000   0.5000000), wk =   0.0277778
        k(   41) = (   0.0833333   0.3333333   0.0000000), wk =   0.0277778
        k(   42) = (   0.0833333   0.3333333   0.1666667), wk =   0.0555556
        k(   43) = (   0.0833333   0.3333333   0.3333333), wk =   0.0555556
        k(   44) = (   0.0833333   0.3333333   0.5000000), wk =   0.0277778
        k(   45) = (   0.0833333   0.4166667   0.0000000), wk =   0.0277778
        k(   46) = (   0.0833333   0.4166667   0.1666667), wk =   0.0555556
        k(   47) = (   0.0833333   0.4166667   0.3333333), wk =   0.0555556
        k(   48) = (   0.0833333   0.4166667   0.5000000), wk =   0.0277778
        k(   49) = (   0.1666667   0.1666667   0.0000000), wk =   0.0138889
        k(   50) = (   0.1666667   0.1666667   0.1666667), wk =   0.0277778
        k(   51) = (   0.1666667   0.1666667   0.3333333), wk =   0.0277778
        k(   52) = (   0.1666667   0.1666667   0.5000000), wk =   0.0138889
        k(   53) = (   0.1666667   0.2500000   0.0000000), wk =   0.0277778
        k(   54) = (   0.1666667   0.2500000   0.1666667), wk =   0.0555556
        k(   55) = (   0.1666667   0.2500000   0.3333333), wk =   0.0555556
        k(   56) = (   0.1666667   0.2500000   0.5000000), wk =   0.0277778
        k(   57) = (   0.1666667   0.3333333   0.0000000), wk =   0.0277778
        k(   58) = (   0.1666667   0.3333333   0.1666667), wk =   0.0555556
        k(   59) = (   0.1666667   0.3333333   0.3333333), wk =   0.0555556
        k(   60) = (   0.1666667   0.3333333   0.5000000), wk =   0.0277778
        k(   61) = (   0.1666667   0.4166667   0.0000000), wk =   0.0138889
        k(   62) = (   0.1666667   0.4166667   0.1666667), wk =   0.0277778
        k(   63) = (   0.1666667   0.4166667   0.3333333), wk =   0.0277778
        k(   64) = (   0.1666667   0.4166667   0.5000000), wk =   0.0138889
        k(   65) = (   0.2500000   0.2500000   0.0000000), wk =   0.0138889
        k(   66) = (   0.2500000   0.2500000   0.1666667), wk =   0.0277778
        k(   67) = (   0.2500000   0.2500000   0.3333333), wk =   0.0277778
        k(   68) = (   0.2500000   0.2500000   0.5000000), wk =   0.0138889
        k(   69) = (   0.2500000   0.3333333   0.0000000), wk =   0.0277778
        k(   70) = (   0.2500000   0.3333333   0.1666667), wk =   0.0555556
        k(   71) = (   0.2500000   0.3333333   0.3333333), wk =   0.0555556
        k(   72) = (   0.2500000   0.3333333   0.5000000), wk =   0.0277778
        k(   73) = (   0.3333333   0.3333333   0.0000000), wk =   0.0046296
        k(   74) = (   0.3333333   0.3333333   0.1666667), wk =   0.0092593
        k(   75) = (   0.3333333   0.3333333   0.3333333), wk =   0.0092593
        k(   76) = (   0.3333333   0.3333333   0.5000000), wk =   0.0046296

     Dense  grid:    19375 G-vectors     FFT dimensions: (  25,  25,  72)

     Dynamical RAM for                 wfc:      30.20 MB

     Dynamical RAM for     wfc (w. buffer):      30.20 MB

     Dynamical RAM for           str. fact:       0.59 MB

     Dynamical RAM for           local pot:       0.00 MB

     Dynamical RAM for          nlocal pot:       1.33 MB

     Dynamical RAM for                qrad:       0.58 MB

     Dynamical RAM for          rho,v,vnew:       1.92 MB

     Dynamical RAM for           G-vectors:       1.26 MB

     Dynamical RAM for          h,s,v(r/c):      30.78 MB

     Dynamical RAM for          <psi|beta>:       0.45 MB

     Dynamical RAM for      wfcinit/wfcrot:      75.81 MB

     Estimated static dynamical RAM per process >      38.48 MB

     Estimated max dynamical RAM per process >     114.28 MB

     Estimated total dynamical RAM >       8.48 GB

     Check: negative core charge=   -0.000032

     The potential is recalculated from file :
     ./BN.save/charge-density

     Starting wfcs are   64 randomized atomic wfcs +  756 random wfcs

     Band Structure Calculation
     CG style diagonalization

     Computing kpt #:     1
     c_bands:  3 eigenvalues not converged
     total cpu time spent up to now is      920.7 secs

     ethr =  6.25E-13,  avg # of iterations = 60.0

     total cpu time spent up to now is      920.7 secs

     End of band structure calculation

          k = 0.0000 0.0000 0.0000 (  2445 PWs)   bands (ev):

   -13.1844 -12.8763  -1.9088   0.2652   3.0234   3.0234   3.0598   3.0598
     9.3307  14.3705  15.8213  15.8213  15.9441  15.9441  16.6214  17.2107
    19.1473  20.6414  26.3082  29.1720  30.0120  32.6047  32.6047  32.8549
    35.2929  35.2929  35.9919  36.6276  36.6276  39.3142  39.3142  40.3233
    40.3233  40.8534  40.8534  42.8027  44.1204  44.7712  47.0798  47.9667
    49.5439  49.5439  50.7160  50.7160  51.4594  53.9823  53.9823  57.0338
    57.0338  57.0767  57.6139  57.6139  60.7634  62.6460  62.6574  62.6574
    72.4713  73.0362  73.7939  73.7939  75.4738  76.6177  76.6177  77.1198
    77.7404  77.7404  78.1685  78.1685  80.3280  80.3280  81.7272  81.9546
    81.9546  84.4243  84.7849  88.5963  89.5144  89.5723  91.5600  93.8938
    93.8938  95.4969  95.4969  96.5534  97.7828  97.7828  98.1440  98.1440
    98.8460  99.4837  99.4837 102.4446 102.4446 102.4583 103.0566 103.0566
   104.3592 104.9809 105.7439 105.7439 106.2736 106.5075 106.5075 106.7507
   108.5879 108.5879 109.1848 109.1848 109.9759 109.9759 110.0403 110.5491
   110.5491 112.2970 112.2970 112.7602 114.2280 115.1320 116.5658 117.1620
   117.5423 117.6429 117.6429 118.9146 119.3901 119.3901 119.9111 119.9111
   120.1515 120.1515 121.2074 121.4816 122.4088 122.8430 127.6993 129.2406
   129.2406 130.0955 130.4015 130.4015 130.7971 132.0878 132.0878 132.7373
   132.7373 133.8405 133.8405 134.4612 134.4612 135.8790 137.3285 137.7727
   137.8907 138.9891 138.9891 139.6513 139.6513 140.8696 141.9496 141.9496
   142.6141 142.6141 144.0351 144.6727 144.7489 144.9021 144.9021 144.9724
   144.9724 146.9401 146.9401 147.4740 147.7834 149.7486 149.7486 149.9253
   149.9253 150.0662 150.0662 150.1434 150.1434 150.1904 150.3112 151.2068
   151.2068 152.6636 152.9537 154.0588 156.4324 164.3610 164.3610 166.2941
   168.7530 168.7530 169.9640 169.9640 170.0408 171.2878 172.2124 172.2124
   172.3841 172.8819 172.8819 173.5032 173.5032 173.8272 173.8272 174.4899
   174.4899 175.0050 175.0758 175.0816 175.7732 175.8665 179.2043 179.2043
   179.4969 186.9109 186.9109 186.9925 186.9925 189.5339 189.5339 192.2091
   192.2091 192.3360 193.0478 193.1282 193.1282 193.2885 193.2885 194.7128
   194.7128 194.8437 198.9656 199.3294 201.9542 202.4745 202.4745 202.9042
   202.9927 203.3995 204.0830 204.0830 204.1509 204.1509 204.6353 204.6353
   204.7874 204.7874 204.9774 205.1548 205.1961 206.0719 206.0719 208.4459
   208.4459 209.3453 209.3691 209.9373 209.9392 209.9392 210.0470 210.0470
   210.5475 210.6318 210.6318 211.9742 212.2230 213.1652 213.1652 213.4181
   213.4181 214.7736 214.9469 215.1212 222.3029 222.8253 222.8253 223.6358
   223.6358 224.2546 224.2546 224.6626 226.0094 226.7110 226.7110 227.2538
   227.2538 227.3673 227.4092 227.4092 227.5613 228.8142 229.2384 229.2384
   229.2640 230.8374 231.4065 231.4065 231.9247 231.9763 231.9763 232.4287
   233.1391 233.1391 233.1524 233.1524 233.5319 233.5483 234.3627 234.3627
   234.8835 235.7908 235.7908 235.8498 235.8498 240.6393 240.7154 240.7154
   240.7913 241.5456 241.5456 242.2349 242.2349 242.3628 242.3876 242.3876
   242.4609 243.1122 243.1122 243.1237 243.2003 243.2708 243.2708 243.4541
   243.6709 243.6709 243.7721 244.1531 244.1531 244.2529 244.2529 244.8172
   244.8172 244.8383 246.0091 246.0341 246.0341 246.2627 247.5312 247.5312
   247.7890 248.9208 248.9208 249.0933 249.2465 249.7870 249.7870 250.0291
   250.3444 251.5054 251.5054 251.5569 251.5569 254.8391 254.8391 254.9419
   254.9419 256.3918 256.3948 261.0385 261.0385 263.2059 263.2059 264.9027
   264.9684 265.3777 266.0978 266.0978 266.4869 266.6207 266.6207 267.4589
   267.4589 267.5732 267.5732 267.7924 267.8984 268.7763 268.7763 269.1436
   269.1522 269.2041 269.2041 269.7011 270.4106 271.2431 271.4347 271.4347
   273.1241 273.2177 273.2177 273.5560 273.6783 273.7746 273.8330 273.8330
   273.8758 273.8758 280.1993 280.9687 280.9687 281.2208 281.2208 285.5027
   285.5027 285.5577 285.5577 286.3334 287.0930 288.9847 289.0156 289.0156
   289.3313 289.3313 289.3660 290.4480 290.4923 292.8045 293.5831 293.5831
   294.0619 294.0619 294.1347 294.9847 294.9847 296.3122 296.3122 296.4548
   296.6663 296.6663 296.9686 296.9774 297.0202 297.0202 297.5140 297.5140
   297.7529 297.8061 297.8061 297.8856 298.0553 298.0553 298.0851 298.0851
   298.4138 299.2981 299.3014 300.1219 300.9065 300.9065 301.0375 301.2181
   301.2181 301.3185 301.3185 301.4256 301.4553 301.4553 301.5750 301.8672
   301.8672 302.0570 302.0570 303.2623 303.2623 303.5186 303.5186 304.0795
   304.1439 305.4187 305.4187 305.5077 305.5077 307.0722 307.0774 310.5840
   310.5840 310.8883 310.8883 311.1526 311.4357 311.5687 311.5687 311.6002
   311.6166 311.6166 311.7090 322.7789 327.2146 327.2146 328.1010 328.1010
   328.4628 328.8063 329.2177 329.7339 329.7339 331.1198 331.3710 331.3710
   332.4955 332.4955 332.9010 333.0516 333.0516 333.2015 333.2015 333.3052
   333.4277 333.7194 333.7194 336.3796 336.3852 337.2343 337.3133 338.5811
   338.7749 338.7749 338.8029 338.8029 338.8476 339.0530 339.0530 339.2113
   339.2113 340.6925 340.8187 340.8187 340.8666 340.8666 340.8840 341.1050
   341.1050 341.2235 341.2235 341.2754 341.3501 349.8274 351.7953 354.1283
   354.1283 355.7021 357.3645 357.3645 357.7132 358.8887 358.8887 359.4302
   359.4302 359.9222 359.9222 361.1193 361.3067 361.3067 361.7570 361.7570
   361.8489 361.8489 362.1820 362.1820 362.6177 362.6480 362.6522 363.0122
   363.0122 363.5735 363.8538 363.8538 363.9210 363.9476 364.5505 364.5505
   364.5773 364.6366 364.6515 365.1602 365.1602 365.6967 365.6967 365.7032
   365.7389 365.7389 365.9645 365.9645 366.2277 372.4858 374.4770 374.4770
   375.0654 375.0654 376.3794 378.1525 378.1525 378.5744 378.5744 380.2981
   380.3541 382.7479 383.1146 383.7074 383.7074 383.8444 383.8444 384.4222
   384.4222 384.4739 385.0621 385.0621 385.3071 385.4383 385.4383 385.4752
   385.8327 385.8327 386.0632 387.8019 387.8019 387.9380 387.9380 388.7772
   388.9406 388.9406 389.3484 389.3484 389.4115 389.5826 391.0160 391.0912
   391.0912 391.1069 391.1069 392.2198 392.2528 392.2881 393.5782 393.5782
   393.7171 393.7171 393.7553 393.7700 393.7700 394.3476 394.3476 394.9617
   394.9617 395.0151 395.0163 395.0163 395.4556 395.5533 397.3161 399.1882
   399.8105 399.9311 400.0479 400.2035 400.3629 400.3629 400.7335 400.7335
   400.8481 400.8481 401.0640 401.0640 401.1583 401.3687 401.3687 401.4884
   401.4884 401.5328 401.7111 402.4652 402.4652 403.0120 403.7300 403.7300
   404.5168 405.9305 406.0459 406.0459 406.3593 406.3593 406.3983 407.5972
   407.5972 407.8114 408.1549 408.1549 408.4728 415.8587 416.1973 416.1973
   416.8820 416.8820 417.3614 417.7333 417.8585 418.2646 418.2646 418.6415
   418.6415 418.7697 418.9569 419.4430 419.4430 419.6641 420.2580 420.2580
   420.5602 422.4444 422.4444 422.6059 422.6529 422.6529 422.9312 422.9312
   422.9693 422.9693 423.0402 423.2666 423.2666 423.8431 423.8431 424.1907
   424.2011 424.9567 425.0525 425.0525 425.1573 425.1573 425.2055 425.2379
   425.2556 425.2581 426.4376 426.4376 426.5232 426.5232 427.2847 427.4211
   427.4211 427.5065 427.5065 428.4115 428.4687 429.3624 429.3624 429.5672
   429.5672 430.0439 430.1165 430.1165 430.2736 430.2736 430.3179 430.3179
   430.3341 430.3341 430.4021 430.4542 430.5498 431.1540 431.1759 432.6819
   432.6819 432.7308 432.7308 434.5021 434.5681 435.4478 435.4478 435.4563
   435.4563 436.4701 436.4751 436.4751 436.4967 436.4967 436.7112 436.7112
   436.7240 436.8609 436.8659 436.8659 436.8662 436.8760 436.8760 436.9661
   437.1100 437.1100 437.1793 437.1793 437.4701 437.5626 437.5626 437.7548
   437.9244 439.5879 439.7950 439.7950 439.8117 440.1013 440.1013 440.3395
   440.3395 440.5847 440.5847 440.6145

          k = 0.0000 0.0000 0.0627 (  2409 PWs)   bands (ev):

   -13.1649 -12.8980  -1.7895   0.0786   3.0265   3.0265   3.0576   3.0576
     9.6572  13.9573  15.8293  15.8293  15.9360  15.9360  16.7271  17.1938
    19.1984  20.4197  26.8448  29.1786  29.9878  32.5071  32.7504  32.7504
    35.4502  35.4502  35.9399  35.9399  36.3391  39.0430  39.0430  40.2424
    40.2424  42.2952  42.2952  42.8775  43.8470  44.1543  45.4605  49.1015
    49.1015  49.2395  49.2395  50.8581  51.0630  54.8999  54.8999  57.1443
    57.1443  57.4276  57.8560  57.8560  60.9811  62.4648  63.7542  63.7542
    69.5286  71.0890  71.0890  72.0620  76.9343  76.9343  77.5183  77.5183
    77.6253  77.7829  77.7829  78.7426  80.1347  80.1347  82.3951  84.4470
    84.7592  85.4892  85.4892  87.9530  89.0683  89.2096  92.1186  93.3193
    93.3193  95.5802  95.5802  96.6182  97.8346  97.8346  98.3297  98.3297
    99.0293  99.0293  99.0407 102.2602 102.2602 102.5841 102.5841 103.2484
   103.9260 103.9635 103.9635 104.1622 104.7317 104.8792 104.8792 106.8355
   106.8355 107.6379 108.9721 109.1001 109.1001 111.6961 112.2799 112.2799
   113.0119 113.0119 114.5830 114.5830 114.7345 115.7353 115.9216 115.9216
   116.6404 117.0581 117.0581 118.0779 118.1479 119.1409 119.4510 121.5805
   122.0334 122.0334 123.2190 123.2190 124.0636 124.7460 127.9097 129.4073
   129.4073 129.9585 130.4951 130.4951 130.6423 130.6423 131.0607 131.0607
   131.0745 133.4537 134.9272 134.9272 135.3603 135.3603 136.0178 137.0493
   137.0493 137.0884 137.0884 139.2345 139.3249 139.9405 139.9405 140.3269
   142.4111 143.0252 143.0252 143.6475 143.6475 143.9239 145.1760 145.1760
   145.1802 145.4464 146.9431 147.1901 147.1901 147.5549 147.5549 149.2877
   149.3881 150.8463 150.8463 151.9255 151.9255 153.9339 154.1527 154.1527
   155.0666 156.5496 156.5496 156.6709 159.9376 161.3697 161.3697 165.5090
   166.3747 166.3747 167.1646 167.6343 167.6343 168.6864 169.5091 169.5597
   169.5597 171.0299 172.2968 172.2968 175.7009 176.0217 176.0217 176.4237
   176.4237 178.1784 178.5585 178.5585 179.2741 179.2741 179.5495 180.7607
   182.9406 183.1702 183.1702 185.2376 185.3090 185.3090 187.2050 187.2050
   191.0677 192.8497 192.8497 193.6284 193.6284 195.2575 195.2575 198.0201
   198.5205 198.8935 198.8935 199.3072 199.3072 199.6469 199.7300 199.7300
   200.1983 200.9176 201.1798 201.1798 201.7455 202.9129 202.9566 203.9057
   203.9057 205.5659 206.6609 207.2368 207.2368 207.4944 207.4944 208.1794
   209.1242 209.2892 209.2892 210.3534 210.7286 210.7286 210.8583 212.7066
   212.7066 213.1287 213.1287 213.5674 213.5674 213.5704 214.4913 214.9142
   217.5946 217.5946 218.4263 219.1534 222.5248 222.7594 222.7594 223.0107
   223.0107 224.1221 224.1221 224.3078 224.8230 226.1116 226.7338 226.7338
   226.8513 226.8513 227.5430 227.5430 227.7639 228.1443 228.1443 228.1785
   230.0566 230.6934 230.6934 230.9304 230.9304 231.8184 231.8184 232.2097
   232.2271 232.2271 232.2925 233.3295 233.3661 233.8525 234.2654 234.2654
   234.6575 234.6575 235.0737 235.6210 235.6210 235.7663 235.7663 236.0216
   236.0216 236.0491 236.3079 236.4590 237.8915 239.5454 239.5454 239.6579
   239.6579 240.3606 242.4569 242.4569 242.9141 242.9141 243.0371 244.8545
   245.3881 245.3881 245.6645 245.6645 245.9634 245.9634 246.6715 246.6796
   247.6292 247.6292 247.8829 247.8829 248.6431 248.6431 248.8913 248.9935
   249.4547 249.7496 250.5693 250.5693 250.7183 251.2943 251.2943 252.3082
   252.8481 252.8481 253.0285 253.0285 253.6588 254.9368 255.4868 258.5128
   258.5128 260.0482 260.0482 260.6760 260.6760 261.9947 262.7108 262.7108
   264.3122 264.3122 264.3290 264.6705 264.8051 266.2756 266.2756 266.5338
   266.5338 266.6676 268.2068 268.2068 268.7416 268.8687 268.8687 269.3301
   269.5990 269.5990 269.6356 270.4985 270.6353 271.3529 271.3529 272.2242
   272.6596 272.6596 273.6129 273.6129 273.6906 275.2400 275.7340 276.7673
   276.7673 277.8428 277.8428 277.9547 277.9547 278.3144 279.0645 281.4612
   284.5497 287.5549 287.5549 288.5770 288.6411 288.6411 288.8789 288.8789
   288.9352 289.3773 289.3773 289.5396 290.4193 290.4193 290.7597 290.8732
   290.8732 292.1891 292.5501 292.5501 292.5614 292.5614 293.3040 293.3040
   293.3300 293.4280 293.6355 293.6355 293.7281 293.7281 293.7833 294.7710
   295.5985 296.1639 296.1639 296.6031 296.6031 297.3979 297.3979 297.8357
   297.8357 297.9284 297.9284 298.0424 298.1005 298.1515 298.5719 299.9095
   302.5535 302.5535 303.0453 303.1730 303.1730 305.0051 305.5221 306.7307
   306.7307 307.5984 307.8226 307.8226 307.8272 307.8272 307.9506 307.9506
   308.1233 308.3835 309.0363 309.0363 309.8416 310.3343 310.3343 311.1649
   311.7590 311.7590 314.5135 314.5135 314.7083 314.7658 314.7658 314.8597
   314.8597 315.1729 316.1898 317.6312 317.6540 320.0943 320.0943 325.0958
   325.0958 326.0991 326.0991 326.9260 327.6357 327.6357 328.0117 328.5794
   329.7280 331.1790 331.1790 331.7957 331.7957 331.8999 334.2688 334.3846
   334.5417 334.5417 334.6272 334.6272 334.6450 335.0748 335.0748 335.6559
   335.6559 336.9196 337.9442 337.9442 338.3254 340.0902 340.6517 340.6857
   340.6857 343.2281 345.5394 346.2976 346.5787 346.7466 346.7466 347.1838
   347.1838 347.4691 347.4691 347.8751 347.8751 347.9442 347.9442 348.1244
   348.1602 350.6854 350.6854 352.5601 352.5601 353.9051 354.5047 354.5047
   354.5228 354.9842 354.9842 357.0408 357.5730 357.5730 358.3871 358.7826
   358.7826 360.7937 360.7937 361.2995 361.2995 361.7506 361.7506 361.8663
   362.6561 362.6774 362.9057 363.2410 366.1179 366.8755 367.1535 367.1535
   367.2662 367.2662 369.3018 369.3018 369.6905 370.6356 370.6356 370.7298
   371.2325 371.2325 372.5646 373.1220 373.1220 373.4821 373.4821 374.8177
   375.2504 376.1886 376.1886 376.4142 377.0508 377.0508 377.2688 377.2688
   377.6119 381.9160 382.1836 382.1836 383.4346 383.8477 383.8477 384.8892
   384.8892 384.8901 385.2938 385.3305 385.3305 385.3403 385.3403 385.5153
   386.1008 386.1008 387.1958 387.1958 387.6384 387.6384 387.8628 387.9482
   388.2057 388.7296 388.7296 388.7408 389.3630 389.3630 390.5429 390.5665
   391.2938 391.3155 391.3155 391.6587 391.6587 392.0815 392.0815 393.1105
   393.1156 393.1156 393.2350 393.4583 393.8577 393.8577 394.0144 394.0144
   394.2386 394.4118 395.0552 395.0552 395.0742 395.0742 396.1096 397.5972
   399.1381 399.8135 400.6308 400.6308 401.2119 401.2119 402.0280 402.0280
   402.1897 402.5629 403.7325 403.7325 403.7582 403.7582 403.7643 404.1445
   404.1445 404.5483 405.1097 405.1097 405.1440 405.1440 405.5215 405.6178
   406.7800 407.3336 407.3336 407.9535 407.9535 408.1445 408.1697 409.9287
   409.9287 410.0524 410.2488 410.2488 410.4093 411.7174 411.7174 412.5317
   413.1605 415.7015 415.7015 416.0892 416.1435 416.3812 416.3812 416.8579
   416.8579 417.2028 417.2028 417.4795 417.6818 418.0416 418.4979 418.4979
   418.8593 418.8593 419.0076 419.2483 419.2483 419.7455 419.8086 419.9360
   419.9360 420.4055 420.4055 420.5631 420.5631 421.3011 421.6907 421.7508
   421.7508 422.0430 422.0430 422.6902 424.3551 424.4334 424.4792 424.4792
   424.5891 424.5891 424.6422 424.6422 424.9749 425.1710 425.1819 425.1819
   425.6172 425.6172 425.7907 426.3675 426.4321 426.4321 426.7062 426.7062
   426.8220 427.1158 427.4430 427.4430 428.0487 428.0487 428.3161 430.1626
   433.0431 433.0431 433.5780 433.5780 433.6705 433.6705 433.8707 434.0254
   434.4039 434.4039 434.5726 434.8367 435.1921 435.1921 435.3172 435.8304
   435.8304 436.5430 436.5860 436.5860 437.0948 437.0948 437.3214 437.4737
   437.5957 437.6059 437.6059 437.9062 437.9062 437.9739 438.4058 438.4058
   438.6801 438.6801 439.9317 440.2417 440.3028 440.3028 440.5253 440.8551
   440.8551 441.3474 443.0567 443.3586 443.3586 443.7577 443.8902 443.8902
   444.1227 444.6760 444.6760 445.2189

          k = 0.0000 0.0000 0.1253 (  2416 PWs)   bands (ev):

   -13.1111 -12.9572  -1.4507  -0.3876   3.0330   3.0330   3.0509   3.0509
    10.5290  12.9532  15.8514  15.8514  15.9130  15.9130  16.9069  17.1422
    19.3526  19.9921  28.0390  29.1738  30.0041  31.5874  33.1838  33.1838
    34.8426  34.8426  35.9262  35.9262  37.3622  37.7473  37.7473  41.2859
    42.0364  42.0364  43.0899  43.7537  43.9733  43.9733  46.3964  46.9787
    46.9787  47.9135  47.9135  49.4596  54.7274  55.5581  55.5581  56.4435
    56.4435  58.4586  60.1375  60.3381  60.3381  62.3775  65.8846  65.8846
    66.8036  67.7670  67.7670  69.9304  73.1648  73.1648  77.6376  77.6376
    77.7278  77.7278  79.5170  82.4946  83.1129  84.0982  84.0982  84.5100
    84.6900  86.7680  87.8648  88.4061  89.8380  89.8380  91.3750  91.3750
    93.6799  95.6683  95.6683  97.6026  97.9524  97.9524  98.1884  98.1884
    98.8347  98.8347  99.6148 100.3971 100.3971 100.4335 100.4807 100.4807
   101.0540 101.0540 101.7789 102.0779 104.8190 104.8190 106.9482 107.6479
   107.6479 109.1212 109.2688 109.2688 109.8725 110.2849 112.5023 112.5023
   113.3532 114.0266 114.0266 114.0626 114.0626 115.1657 116.0464 116.3980
   118.4377 118.4377 118.9112 119.2340 119.2340 119.9945 121.8195 121.9700
   126.0642 126.0642 126.3719 126.3719 127.0968 127.0968 127.1101 128.3444
   128.6082 128.6082 128.8678 130.2928 130.3769 130.3769 131.3146 131.4627
   131.4627 131.8877 131.8877 131.9708 133.0191 133.0191 133.8351 135.7021
   135.7021 136.1370 137.6805 137.6805 137.7523 137.7523 138.4031 139.0286
   139.0286 139.3672 140.9111 140.9513 142.3972 142.3972 144.2686 144.4112
   144.4112 145.8046 147.4648 147.4648 147.5138 148.8296 152.2389 152.2389
   154.0565 155.1483 155.1483 155.1892 156.0906 156.2337 156.2337 157.4343
   157.4343 158.1001 158.1001 160.2495 162.4004 162.4004 162.6321 162.6321
   162.7916 163.4187 163.4187 163.5464 164.1678 165.2758 165.3793 165.3793
   166.9208 170.1070 171.1323 171.1323 175.9705 175.9705 177.4774 177.8349
   177.8349 180.3611 180.3611 180.8541 180.8541 181.3525 182.2722 182.4463
   183.4676 183.4676 185.0530 185.0530 185.7777 186.6686 188.0507 188.1326
   188.1326 190.9031 190.9031 192.3723 192.3723 193.9953 193.9953 194.4980
   194.6767 194.7293 195.4108 195.4108 195.9147 195.9147 197.6833 197.6833
   198.2481 199.0267 200.8175 202.9353 203.0147 203.2781 203.2781 206.4179
   207.4233 207.5802 207.5802 207.6774 207.6774 208.0768 209.2176 209.2176
   210.3465 212.8057 212.8057 212.9224 212.9224 213.4795 214.5971 214.8266
   214.9364 214.9364 215.7523 216.2586 216.2586 217.3412 218.0375 218.0375
   219.8405 219.8405 222.0043 223.2301 223.6079 223.6079 224.1028 224.1028
   224.2664 224.2664 224.9245 224.9245 225.0845 225.0845 225.2713 225.9167
   226.1428 226.1575 226.5202 226.5202 227.0607 227.1062 227.3327 227.3327
   228.1108 228.1108 228.3735 228.8092 228.8581 228.8581 228.9886 228.9886
   229.1256 229.5645 229.5645 229.9511 230.3246 230.3246 230.4912 230.6525
   232.3055 232.3055 233.6574 233.6574 233.8713 234.0521 234.0521 235.2283
   236.5604 236.5604 236.7022 237.1662 237.1662 237.9405 238.2643 238.2643
   238.7847 239.0243 239.0243 239.0612 239.0612 240.1747 240.6362 241.3441
   242.3825 242.3825 242.7294 243.7946 243.7946 244.3121 245.6782 249.1406
   249.1406 249.2997 249.2997 249.4786 251.7501 251.7501 252.9826 253.9786
   254.2013 254.2013 255.4020 255.4020 256.4149 256.4149 256.4943 256.6236
   256.8539 256.8539 257.2909 257.4702 257.4702 258.2136 258.7853 259.7847
   259.7847 260.6623 260.8985 260.8985 261.3154 262.2917 262.2917 262.5299
   262.7443 263.8527 263.8527 265.0532 265.0532 265.1260 265.8664 265.8664
   267.3251 267.3251 267.5628 267.5628 268.2817 268.2817 268.4811 268.4811
   269.3499 269.4974 270.2362 270.5313 270.5313 270.6927 270.9861 270.9861
   271.5479 272.4840 272.9021 275.5663 275.5663 276.1095 277.1075 277.1075
   278.1221 278.1221 278.4300 278.5223 280.8497 281.0790 281.0790 281.3055
   281.3055 281.3686 282.5812 282.5812 282.9809 282.9809 283.0925 285.4475
   285.7469 285.8450 285.8450 286.5308 286.5308 287.9560 287.9560 288.2945
   288.4214 289.4558 289.5867 289.5867 290.1682 290.1682 290.2579 291.3973
   291.3973 291.4204 291.9315 291.9869 291.9869 292.1491 292.1491 292.1674
   292.6902 292.6902 293.2223 293.8209 296.2872 296.2872 299.7738 299.7738
   299.8063 299.8063 300.0618 300.1569 301.5393 301.5393 302.9650 304.5102
   304.5102 305.0051 305.0051 305.1758 305.1853 306.6857 308.7460 308.7460
   308.9445 308.9445 308.9652 309.0703 309.6967 310.9004 311.7678 312.2665
   312.2665 312.7024 312.7024 314.6934 314.6934 315.7597 316.5081 317.6133
   317.6133 317.9885 317.9885 318.4063 318.5707 318.5707 318.9306 318.9306
   319.2541 319.6541 319.6541 319.9707 320.4436 320.4436 321.5292 321.6887
   321.6887 321.9007 322.1364 322.1364 322.2937 323.2626 323.8159 323.8159
   324.4079 324.4079 325.4935 325.7400 325.7400 326.6012 328.1625 328.5146
   328.5146 328.7534 328.7534 328.7568 329.8104 336.4213 337.8744 337.8744
   339.8426 339.8426 340.5725 340.5725 341.4755 341.6782 341.6782 341.6977
   342.8695 342.8695 343.2483 343.5396 343.5396 343.6879 343.6879 343.8728
   344.6626 347.9283 347.9283 350.2522 350.6971 350.6971 351.4883 352.0496
   352.4299 352.4299 352.8794 353.0652 353.9084 353.9084 354.8473 354.8473
   354.9287 355.1566 355.9001 355.9001 356.2674 356.2674 356.7819 357.2139
   357.2139 358.4549 359.9933 359.9933 360.9837 360.9837 361.2749 361.2749
   361.6114 361.6114 362.5987 362.6101 363.0035 363.0414 363.4304 363.4304
   365.0985 367.5793 368.6477 368.6477 369.7236 369.7236 370.0710 371.6961
   373.0515 373.7207 373.7207 374.2582 374.2582 374.7749 375.1769 375.1769
   375.2115 375.2115 375.4969 375.5887 376.5108 379.3715 380.2120 380.2120
   383.6925 383.6925 384.4091 384.4091 384.6372 384.6372 384.7830 385.1425
   385.7950 385.7950 385.8121 385.8121 385.8450 385.8717 386.1191 386.1191
   387.1796 387.1796 387.5198 387.6928 387.9548 387.9777 387.9777 388.7027
   388.7027 388.9303 388.9303 388.9509 389.0401 389.0401 390.4871 391.5078
   391.5345 391.5798 391.5798 391.7065 391.7065 393.0573 393.0573 394.2525
   394.8570 395.1587 395.1587 395.3192 395.5992 395.5992 396.0377 396.0377
   396.3873 396.5945 398.2183 398.6612 399.3367 399.5758 399.5758 399.6985
   399.6985 399.8724 400.2282 400.2282 400.5302 400.9450 400.9450 401.2507
   401.2507 401.3569 401.5083 401.6577 401.8392 401.8392 402.5583 402.5583
   403.8674 403.8674 404.3336 404.3336 404.6338 404.9428 404.9428 405.0166
   406.5948 407.6679 408.2852 408.2852 408.7379 408.7379 411.6969 411.6969
   412.3469 412.5003 412.5021 412.5021 412.8777 412.8777 413.1075 413.1075
   413.1271 413.3851 413.5058 413.5320 413.5320 414.5888 414.6365 414.6365
   414.8649 414.8649 414.9686 415.7989 415.7989 416.1135 416.1729 416.6381
   416.6381 416.8771 417.1984 417.1984 417.5324 417.5324 417.8537 417.8537
   417.9885 418.3206 418.3390 418.3390 418.3714 418.5193 418.5592 418.5592
   418.5933 419.1638 419.1638 419.5937 419.5937 419.7420 420.0206 420.0206
   420.0396 420.3138 420.3138 420.5655 422.9319 422.9581 422.9581 423.2701
   423.2701 423.4050 425.1911 426.3399 426.3399 426.7279 426.8565 426.8565
   427.2168 428.2506 428.2506 428.4624 428.5712 428.6194 428.6194 428.9357
   428.9357 428.9366 428.9366 429.0726 429.2629 431.8204 431.8204 432.0946
   432.2930 432.2930 432.6337 433.6068 433.9063 433.9063 434.3044 434.3044
   434.4593 434.6837 435.6745 435.6745 437.0400 437.0400 437.5173 438.9246
   438.9246 439.2094 439.2094 439.2719 439.3489 441.8826 443.6237 443.6237
   443.8203 443.8203 443.9239 444.0517 445.3592 445.3592 445.5142 445.5981
   445.5981 446.6257 446.9901 446.9901 447.3961 447.3961 447.6941 448.2983
   448.2983 448.9066 448.9068 449.1914

          k = 0.0000 0.0000 0.1880 (  2434 PWs)   bands (ev):

   -13.0356 -13.0356  -0.9496  -0.9496   3.0419   3.0419   3.0419   3.0419
    11.7138  11.7138  15.8819  15.8819  15.8819  15.8819  17.0492  17.0492
    19.6161  19.6161  28.9760  28.9760  30.4880  30.4880  33.8917  33.8917
    33.8917  33.8917  36.6974  36.6974  36.6974  36.6974  39.0276  39.0276
    43.4039  43.4039  43.9959  43.9959  43.9959  43.9959  46.4361  46.4361
    46.4361  46.4361  47.8491  47.8491  55.9479  55.9479  55.9479  55.9479
    58.0360  58.0360  60.2795  60.2795  63.5558  63.5558  63.5558  63.5558
    67.6823  67.6823  69.6718  69.6718  69.6718  69.6718  77.6875  77.6875
    77.6875  77.6875  81.7682  81.7682  84.5984  84.5984  85.4522  85.4522
    87.4845  87.4845  88.0650  88.0650  88.0650  88.0650  93.9735  93.9735
    93.9735  93.9735  96.4346  96.4346  97.6685  97.6685  97.6685  97.6685
    98.8527  98.8527  98.8527  98.8527  99.6492  99.6492 100.0154 100.0154
   100.0154 100.0154 100.5413 100.5413 106.3897 106.3897 106.3897 106.3897
   109.1854 109.1854 110.8232 110.8232 111.3676 111.3676 111.3676 111.3676
   112.4012 112.4012 113.1390 113.1390 113.1390 113.1390 116.2108 116.2108
   119.2638 119.2638 122.7895 122.7895 123.2372 123.2372 123.2372 123.2372
   123.9142 123.9142 123.9142 123.9142 129.1662 129.1662 129.1662 129.1662
   129.9680 129.9680 130.2477 130.2477 130.2477 130.2477 131.0462 131.0462
   132.1423 132.1423 132.3314 132.3314 132.3314 132.3314 133.3909 133.3909
   133.3909 133.3909 133.5020 133.5020 134.4104 134.4104 139.8732 139.8732
   139.8732 139.8732 141.6339 141.6339 141.6339 141.6339 142.2771 142.2771
   143.3966 143.3966 150.9545 150.9545 151.9618 151.9618 151.9618 151.9618
   154.2177 154.2177 157.1582 157.1582 157.1582 157.1582 158.7212 158.7212
   158.7212 158.7212 159.0167 159.0167 161.4095 161.4095 161.4095 161.4095
   162.5083 162.5083 163.1778 163.1778 164.4938 164.4938 164.4938 164.4938
   170.2631 170.2631 170.5163 170.5163 170.5163 170.5163 176.9904 176.9904
   178.7863 178.7863 178.7863 178.7863 185.7957 185.7957 185.9320 185.9320
   185.9320 185.9320 187.8026 187.8026 187.8903 187.8903 187.8903 187.8903
   190.0358 190.0358 190.3856 190.3856 190.3856 190.3856 191.4727 191.4727
   191.4727 191.4727 192.7620 192.7620 195.1287 195.1287 195.1287 195.1287
   196.4263 196.4263 202.4321 202.4321 202.9679 202.9679 207.6422 207.6422
   207.6422 207.6422 208.2924 208.2924 210.8162 210.8162 210.8162 210.8162
   212.9255 212.9255 212.9255 212.9255 214.7109 214.7109 216.4233 216.4233
   217.4534 217.4534 217.4534 217.4534 219.0002 219.0002 220.3537 220.3537
   220.3537 220.3537 222.0204 222.0204 222.0204 222.0204 222.1071 222.1071
   224.1468 224.1468 225.0256 225.0256 225.0256 225.0256 225.0260 225.0260
   225.3791 225.3791 225.3791 225.3791 226.0524 226.0524 226.7720 226.7720
   226.7720 226.7720 228.1845 228.1845 228.2810 228.2810 228.2810 228.2810
   229.0346 229.0346 229.0346 229.0346 229.3393 229.3393 231.6169 231.6169
   231.6169 231.6169 233.3461 233.3461 234.4818 234.4818 234.4818 234.4818
   235.6195 235.6195 236.0640 236.0640 236.3420 236.3420 236.3420 236.3420
   237.5536 237.5536 239.2551 239.2551 239.5030 239.5030 239.5030 239.5030
   240.8764 240.8764 240.8764 240.8764 241.3946 241.3946 248.9988 248.9988
   252.5228 252.5228 252.5228 252.5228 253.9801 253.9801 253.9801 253.9801
   255.3118 255.3118 256.7189 256.7189 257.0716 257.0716 257.0716 257.0716
   257.7567 257.7567 259.0576 259.0576 259.0576 259.0576 260.1460 260.1460
   260.1460 260.1460 261.1141 261.1141 262.6948 262.6948 262.6948 262.6948
   263.9742 263.9742 264.5090 264.5090 266.5423 266.5423 266.5423 266.5423
   268.0594 268.0594 268.0594 268.0594 269.0484 269.0484 269.0484 269.0484
   269.2260 269.2260 269.6004 269.6004 270.4444 270.4444 271.7666 271.7666
   271.7666 271.7666 273.2174 273.2174 274.9099 274.9099 274.9099 274.9099
   279.1513 279.1513 279.1513 279.1513 280.4787 280.4787 280.4787 280.4787
   280.7905 280.7905 280.8281 280.8281 281.9345 281.9345 281.9345 281.9345
   283.3732 283.3732 284.6327 284.6327 285.7539 285.7539 285.7539 285.7539
   287.4515 287.4515 287.4515 287.4515 288.0630 288.0630 290.9363 290.9363
   290.9363 290.9363 291.0455 291.0455 291.0659 291.0659 291.0659 291.0659
   291.0780 291.0780 295.9298 295.9298 301.1205 301.1205 301.4776 301.4776
   301.4776 301.4776 302.2872 302.2872 302.2872 302.2872 302.5184 302.5184
   302.9124 302.9124 304.9016 304.9016 304.9016 304.9016 309.5639 309.5639
   309.5639 309.5639 311.3800 311.3800 314.6793 314.6793 314.6793 314.6793
   315.2313 315.2313 315.2313 315.2313 315.3786 315.3786 316.3690 316.3690
   316.9860 316.9860 318.3012 318.3012 318.3012 318.3012 319.7008 319.7008
   320.3121 320.3121 320.3121 320.3121 321.8674 321.8674 322.3134 322.3134
   323.1022 323.1022 323.1022 323.1022 323.5451 323.5451 323.5451 323.5451
   323.7141 323.7141 326.7263 326.7263 328.1078 328.1078 328.1078 328.1078
   329.4263 329.4263 329.4263 329.4263 332.1946 332.1946 332.7280 332.7280
   332.7280 332.7280 333.2711 333.2711 333.2711 333.2711 334.9847 334.9847
   345.4435 345.4435 345.4435 345.4435 346.7258 346.7258 347.1726 347.1726
   347.1726 347.1726 347.6395 347.6395 350.7860 350.7860 350.8758 350.8758
   350.8758 350.8758 355.2082 355.2082 355.2082 355.2082 357.4284 357.4284
   359.7044 359.7044 359.7044 359.7044 360.2415 360.2415 360.9222 360.9222
   360.9222 360.9222 361.5570 361.5570 361.5570 361.5570 361.6919 361.6919
   362.3499 362.3499 362.8707 362.8707 362.8707 362.8707 363.2909 363.2909
   363.5856 363.5856 364.3262 364.3262 364.9253 364.9253 364.9253 364.9253
   365.7142 365.7142 365.7142 365.7142 366.3302 366.3302 379.6140 379.6140
   379.6320 379.6320 379.6320 379.6320 381.0992 381.0992 381.0992 381.0992
   381.6334 381.6334 384.7705 384.7705 386.5039 386.5039 386.6310 386.6310
   386.6310 386.6310 386.7706 386.7706 386.7706 386.7706 386.8656 386.8656
   388.0102 388.0102 388.0102 388.0102 389.9670 389.9670 390.3749 390.3749
   390.3749 390.3749 391.5017 391.5017 391.8817 391.8817 391.8817 391.8817
   394.2458 394.2458 394.2458 394.2458 394.8674 394.8674 395.8294 395.8294
   396.3625 396.3625 396.3625 396.3625 397.0434 397.0434 397.3185 397.3185
   397.3185 397.3185 397.8703 397.8703 397.8703 397.8703 398.2931 398.2931
   399.6775 399.6775 399.8507 399.8507 399.9563 399.9563 399.9563 399.9563
   401.0653 401.0653 401.0653 401.0653 401.1715 401.1715 401.9935 401.9935
   401.9935 401.9935 403.2777 403.2777 403.2777 403.2777 404.0358 404.0358
   404.0358 404.0358 404.7733 404.7733 404.9399 404.9399 407.6303 407.6303
   408.5284 408.5284 408.5284 408.5284 409.5948 409.5948 409.5948 409.5948
   409.9435 409.9435 415.6840 415.6840 415.7943 415.7943 415.7943 415.7943
   416.3086 416.3086 416.3086 416.3086 416.7473 416.7473 417.2970 417.2970
   417.7710 417.7710 417.7710 417.7710 418.7010 418.7010 418.7010 418.7010
   419.4145 419.4145 420.0082 420.0082 420.3694 420.3694 420.3694 420.3694
   420.9003 420.9003 420.9003 420.9003 421.0793 421.0793 421.3493 421.3493
   421.3493 421.3493 421.3895 421.3895 422.1141 422.1141 422.1141 422.1141
   422.3833 422.3833 424.0550 424.0550 424.9739 424.9739 424.9739 424.9739
   426.2315 426.2315 426.2315 426.2315 426.7658 426.7658 428.7795 428.7795
   428.7795 428.7795 429.1227 429.1227 429.3238 429.3238 429.3238 429.3238
   429.7041 429.7041 430.9027 430.9027 431.1309 431.1309 431.1309 431.1309
   431.5027 431.5027 431.5027 431.5027 431.6570 431.6570 438.0913 438.0913
   443.8605 443.8605 443.8605 443.8605 444.1046 444.1046 444.1046 444.1046
   444.1532 444.1532 444.2687 444.2687 447.5524 447.5524 447.5524 447.5524
   447.7876 447.7876 448.0259 448.0259 448.0259 448.0259 448.5225 448.5225
   450.4057 450.4057 450.7111 450.7111

          k = 0.0000 0.0962 0.0000 (  2405 PWs)   bands (ev):

   -13.0470 -12.7435  -1.7211   0.4333   2.4810   2.5130   2.7636   2.8038
     9.5733  14.2939  15.6706  15.8622  16.4125  16.5328  16.7162  17.0793
    19.5907  20.3661  26.5706  29.4883  30.3299  30.3962  31.1977  32.2311
    34.5357  35.5655  36.2864  36.4398  37.1338  37.5209  39.9121  40.3029
    41.8268  42.3543  42.3715  43.8403  44.8131  45.7612  47.8853  48.3422
    48.5952  48.8616  50.1793  50.7812  51.3328  52.8195  54.2804  56.6358
    56.7980  57.7133  58.8784  59.2223  59.7384  62.5174  62.8619  65.3673
    71.6698  72.2459  72.6537  72.7161  74.9570  75.4698  75.7879  75.8630
    76.6459  76.7323  78.2846  79.1709  80.0261  81.8703  82.7193  82.8928
    86.1230  87.1137  87.8695  88.1646  88.1940  88.9489  89.4043  90.0546
    92.1472  92.4304  93.6506  94.8393  95.3908  95.3972  95.8115  96.8114
    98.9013  99.0981 100.2284 100.5095 101.4153 101.5302 103.7930 104.0384
   105.3059 105.3360 105.8529 105.9169 106.1526 106.2044 107.4590 107.5536
   108.0049 110.3903 111.0051 111.2701 111.3596 111.5079 111.8009 111.8836
   112.1875 112.3146 113.0419 113.0534 113.5074 113.6346 115.1768 115.4521
   116.0942 116.6970 118.8866 119.0606 119.4948 119.5192 120.1461 120.5089
   120.9736 121.8886 122.3813 123.8347 124.7844 124.8912 125.6988 126.4362
   127.5929 128.2946 128.3511 128.4170 128.8495 129.8889 131.7840 132.1161
   133.2790 133.6511 134.4595 134.8216 135.4496 137.0460 137.7565 137.9090
   138.8893 139.5694 139.6442 139.8828 140.6423 141.6893 142.0602 142.4546
   143.2928 143.3798 143.4158 143.5038 143.8158 144.2087 144.3042 144.7320
   145.5149 146.1024 146.6981 147.4223 147.7366 148.1973 149.2675 149.9298
   150.1700 150.2334 152.4618 152.6335 153.8974 155.0864 155.1083 155.5314
   156.0139 156.3620 156.5739 159.1162 161.1039 161.6482 162.0333 162.2143
   163.1356 163.2932 164.8539 166.0461 167.8077 168.4796 169.0885 170.1458
   170.3006 170.8612 171.5552 172.5896 174.8761 174.9013 175.7189 177.2493
   177.9105 178.2914 178.5089 178.7378 179.0846 181.5033 181.8643 182.0385
   183.0624 184.2016 185.3067 186.1354 186.6328 187.5254 188.2461 190.1717
   190.2825 191.5454 191.7594 192.0537 192.9375 193.3888 194.2618 194.3108
   194.5871 194.9598 196.9804 197.0937 197.6472 198.3513 198.5088 198.6753
   198.9908 199.6900 200.5624 200.6728 201.2787 201.8951 203.0915 203.8394
   204.4195 204.8331 204.9330 206.1026 206.8371 208.1002 208.4851 209.5207
   209.5761 210.0114 210.0316 210.3416 210.5032 210.7299 210.9967 211.5141
   212.1682 212.3295 214.0706 214.3540 214.7695 215.0884 215.3396 215.4678
   215.5564 215.7458 216.1843 218.1527 218.5907 218.7798 218.9566 219.7173
   220.1112 220.8181 220.8443 220.8989 222.3712 222.3919 222.6652 222.8623
   225.4020 225.5893 225.7283 226.5204 227.0882 228.3451 228.3840 229.1469
   230.0829 230.3015 230.5883 231.2928 232.0391 232.2744 232.3748 233.2838
   233.3646 233.5706 234.3060 234.9316 235.1927 235.5036 235.5501 235.7132
   235.8749 235.9818 236.4205 237.3357 237.5011 237.6371 238.2544 238.6572
   238.8604 239.0494 239.4248 239.8906 240.2206 240.8184 241.2607 241.3183
   242.5724 242.7343 242.9338 243.3417 243.5658 243.7059 243.7421 243.9245
   244.4335 244.4777 245.2365 245.5556 245.8273 246.0304 246.8667 246.9412
   247.5340 247.8087 247.8337 248.1926 248.2244 248.5869 248.9917 249.2405
   249.6530 249.7269 251.5131 251.6687 252.7395 252.8428 253.3520 253.4270
   253.7751 253.7880 254.9021 255.2829 255.8898 256.0664 256.3881 256.4564
   256.7665 257.0449 257.2358 257.5200 258.9160 259.1881 259.7820 260.8150
   260.8558 261.1779 261.6525 261.9185 262.1314 262.8448 263.0593 263.8157
   263.9716 265.5900 265.6884 266.5640 266.6851 266.6993 267.4044 267.8004
   269.9899 271.5202 272.7293 272.8024 272.8129 273.4092 275.3503 276.7254
   276.8780 277.3046 277.3679 277.6157 277.7986 278.2493 278.4811 278.7887
   279.4088 279.9310 280.2177 280.8449 281.2768 281.3949 281.4196 282.3501
   283.6981 284.2825 284.6593 285.0185 285.8958 286.1347 286.1732 286.1820
   286.3167 286.7767 287.2717 287.3665 288.3882 288.8482 289.0452 289.1577
   289.5073 290.1229 290.2120 290.5300 290.9485 291.2997 291.9330 293.6100
   294.4781 294.7435 295.5270 296.0879 296.3667 296.3892 296.7597 297.0069
   297.0148 297.0656 297.1279 297.2507 297.2645 297.4331 297.5176 297.5654
   300.2427 300.5871 300.9168 301.3440 301.5519 302.5184 302.6629 302.7036
   303.0448 303.0792 303.2836 303.4423 303.4969 303.8696 304.3420 304.5426
   304.6244 304.9367 305.0880 305.1286 305.1891 305.8133 305.8432 308.4526
   308.8166 309.9797 310.1708 310.3163 310.6138 310.7793 312.8737 313.4066
   313.5218 313.8545 313.8922 315.1783 315.6297 316.0368 316.0646 317.3468
   318.2268 319.1173 319.5010 319.8118 319.9071 321.2352 321.8450 323.5228
   324.3337 324.5078 324.8365 326.8785 326.9213 327.6232 327.6373 327.6580
   328.0178 328.1268 328.2760 329.0687 329.2300 330.4115 330.8070 330.9168
   330.9278 334.6528 334.6553 334.9683 335.1035 337.0347 337.6028 337.7887
   338.5992 339.3920 339.6071 340.1461 340.6935 342.4105 343.2143 343.3128
   344.1789 344.3164 344.6738 344.7585 345.2985 345.3458 345.4327 345.7464
   347.5498 347.6974 348.0233 348.2418 348.2805 349.2022 349.4621 349.9763
   350.6462 352.4976 352.7732 352.7876 353.0193 353.6726 353.7683 353.9163
   354.0103 355.7102 355.7846 355.9483 356.5303 359.6022 360.0372 360.2023
   360.2944 360.3146 360.6411 360.8415 361.2303 361.3142 361.9439 361.9809
   362.2374 362.4016 363.3084 364.2797 364.3542 366.4373 366.6698 367.1180
   367.3694 367.3708 367.5353 369.2749 369.3014 369.8292 370.0500 370.1768
   370.5657 370.9380 371.7830 371.8026 371.9906 372.1784 372.2940 372.4501
   372.5418 372.7564 372.8043 373.3095 373.6457 375.6313 376.0414 376.2370
   376.5979 376.7503 376.8201 377.3802 377.7289 377.7384 378.3836 378.7279
   379.6616 380.0019 381.5307 382.2457 383.1674 383.3733 383.6717 384.1107
   384.2974 384.4453 384.7001 385.0753 385.1947 385.3202 385.5565 385.5782
   385.7639 388.0738 388.7501 388.8943 389.0068 389.2947 389.2959 389.3503
   389.3515 390.3781 390.3865 390.6321 390.6501 390.9686 391.1913 391.8134
   391.8731 393.0561 393.1590 393.1591 393.5405 393.6020 393.7816 394.4504
   394.7232 395.7388 395.8034 397.5806 397.7423 398.3173 399.1334 399.5428
   399.5747 399.8793 400.0852 400.3239 400.4196 400.5016 400.7112 400.7310
   401.4290 401.4614 401.5004 401.5865 404.2053 404.2895 404.6149 404.7986
   405.2547 405.3635 405.3918 405.5993 406.3045 406.3489 406.4319 406.9095
   407.4687 407.8782 408.0031 408.0675 408.1622 408.6695 408.8971 409.0351
   409.5268 409.6540 410.4257 411.0847 411.2743 412.0840 412.2692 412.6138
   412.6628 412.8486 413.5189 414.3399 414.3528 414.4369 414.4414 414.9198
   415.0222 415.4993 415.6220 416.6512 416.7403 416.8191 417.6314 417.7326
   417.9157 418.1801 418.2323 418.8500 419.0476 419.6201 419.7309 419.8652
   421.4960 421.5688 421.6114 421.8406 422.0952 422.2377 422.2982 423.0357
   423.0510 423.5827 423.7982 423.8778 424.3762 424.4143 424.7389 424.9235
   424.9365 425.0796 425.3451 425.4268 425.5540 425.6008 425.6731 426.1330
   426.1624 427.8985 428.2554 428.3689 428.5408 429.1509 429.2116 429.2904
   429.4386 430.6703 430.6742 431.0334 431.1566 431.3170 431.3393 431.3727
   431.6063 431.6532 431.6541 432.3723 432.5535 433.6459 433.8146 433.9018
   433.9302 434.7685 435.2100 435.2482 435.4022 435.4699 435.4876 435.6758
   436.2973 436.3303 436.3476 436.4927 437.0759 437.2078 437.2614 437.2766
   437.3778 438.2192 438.2374 438.2613 438.4407 438.4673 439.8127 440.2177
   441.0746 441.4666 441.5136 441.6631 441.7035 441.8242 442.3156 442.8285
   443.6424 443.9632 444.0084 444.0804 444.0977 444.1930 444.3601 444.7811
   444.8696 445.1643 445.2181 445.5471

          k = 0.0000 0.0962 0.0627 (  2410 PWs)   bands (ev):

   -13.0280 -12.7652  -1.6030   0.2481   2.4839   2.5126   2.7662   2.8010
     9.8917  13.9507  15.6939  15.8561  16.4203  16.5245  16.7362  17.0461
    19.6094  20.2304  27.0177  29.4672  30.2125  30.6076  31.3496  32.0811
    34.7056  34.7267  35.1464  37.2789  37.7577  38.5220  39.6099  40.1061
    41.0040  42.0757  43.6034  43.8978  45.0358  45.6313  46.3314  47.5093
    47.6279  49.8795  50.4310  50.4439  51.8894  54.0471  54.4195  56.9854
    57.0123  58.1668  58.5847  58.5957  60.5824  61.8684  64.2913  65.9762
    69.7415  70.1207  70.1813  71.5780  74.8181  75.1420  76.5737  77.7877
    77.8415  78.1568  78.6215  79.2518  79.4897  80.5132  82.7081  86.5096
    87.0588  87.2536  87.4285  87.8237  88.2268  89.3971  89.5273  90.2228
    92.0787  92.2895  93.1322  94.1094  95.4301  95.5855  96.4155  96.9173
    98.5477  99.4128  99.8367 100.8882 101.0305 101.5357 101.5609 103.0166
   104.1615 104.7999 104.9591 105.9449 106.0992 106.8733 107.1841 107.6407
   108.1189 108.5766 108.6444 109.4459 110.2561 110.5118 111.8639 112.5356
   112.9883 113.2942 114.3708 114.7510 115.2617 115.9021 116.1080 116.8803
   117.0770 117.7410 117.9902 119.1729 119.6173 119.8228 120.2059 121.7899
   122.1837 123.0498 123.2722 123.6006 124.4685 124.9245 125.4963 125.5263
   126.4014 126.7386 128.1104 129.7552 129.8685 130.1768 131.3461 131.5284
   132.1426 134.2717 134.6930 135.2241 135.5500 135.6897 136.9273 137.0241
   137.8808 137.9953 139.1378 139.3993 140.5325 141.0382 141.2463 141.5639
   141.9156 141.9960 142.3969 142.8597 143.2697 144.2529 144.8673 145.7507
   145.8878 146.6311 147.7792 147.8117 147.9008 149.0768 149.4999 149.7866
   150.6119 151.6747 152.0572 153.0278 154.2779 155.4516 155.4835 157.3241
   158.0470 158.4075 158.4946 158.7690 158.8696 161.2413 161.3978 162.4147
   163.7255 164.6093 165.4679 165.4681 166.8092 167.3018 168.6197 169.1042
   171.4319 171.6066 173.1524 173.2080 174.1627 175.0644 175.7186 176.1960
   176.4970 176.6433 178.8109 179.6609 180.3598 180.7307 181.7644 181.9740
   183.0604 183.9846 184.1445 184.6747 186.5185 187.3630 188.1457 188.7298
   189.3285 189.4634 191.2459 191.4005 192.6856 193.1710 193.6182 194.3823
   194.4319 195.1338 195.5516 197.2561 198.2394 198.6093 199.0816 199.4065
   200.6371 201.1007 201.7998 201.8165 202.4422 202.9975 204.0112 204.2645
   204.4018 204.7257 205.2579 205.9208 206.0400 206.2643 206.3889 208.4317
   208.9861 209.3416 209.8726 210.8589 211.8608 212.1385 212.2636 212.3726
   212.7335 213.6676 213.9370 214.9913 215.0264 215.5178 215.6952 215.8416
   215.8644 216.2584 218.2383 218.8086 219.3864 219.5500 219.8146 220.1963
   220.7200 220.9686 222.5602 222.5745 223.1878 223.4620 223.5896 224.1499
   224.2875 224.7525 225.5655 225.7015 226.5001 227.1259 227.7108 228.3377
   228.5419 228.7102 230.0462 230.0469 230.3134 230.7310 231.2790 231.5858
   231.8793 232.4593 232.9039 233.0336 233.4976 234.0249 235.1100 235.2748
   235.6118 235.7898 236.0104 236.3536 236.6823 237.3294 238.3623 238.7908
   238.7950 238.8948 239.0975 239.4693 239.7432 240.1939 240.4098 240.7221
   240.9588 241.2225 241.3440 242.4309 243.1399 243.3956 243.6776 243.8795
   244.5762 244.8306 245.9275 246.5290 246.5567 246.7663 246.9010 247.3901
   247.4587 247.9157 248.4052 248.8327 249.2492 250.1866 250.5182 250.9853
   251.4066 251.8341 252.0483 252.8663 252.9480 253.4983 253.6087 254.3989
   254.5072 254.8666 255.1041 255.4766 255.6749 255.6912 256.9826 257.7196
   258.3806 258.9478 259.0574 259.2413 259.3047 259.5451 259.9741 260.0651
   260.4031 261.0806 261.2399 261.5954 262.3674 262.4469 263.1655 263.4325
   265.3686 265.5370 265.8407 267.5460 267.5988 268.3462 269.9955 270.2854
   271.0193 271.2912 271.4866 273.5138 273.5308 274.2243 274.7442 275.1304
   275.2808 275.4595 276.0489 277.0443 277.3385 277.6475 278.6909 278.8784
   279.4830 279.9663 280.6981 281.2898 281.3169 281.7889 281.8440 281.9501
   282.1505 282.5452 282.9332 284.4671 284.4975 284.6369 285.0077 285.0942
   285.2744 285.6941 285.8135 286.3017 286.7404 287.0116 287.4786 288.0828
   289.0912 289.9488 290.1255 290.4469 290.5476 291.0694 291.5231 291.5409
   292.4349 292.8063 293.0496 293.5167 294.1582 294.6525 294.9123 295.7766
   295.9417 296.5776 296.8490 297.2122 298.2637 298.6544 299.0801 299.6444
   300.3321 300.5843 300.7232 301.4232 301.6143 301.9586 302.4981 302.9494
   303.5175 303.9989 304.3360 305.1946 305.3593 305.3960 306.0191 306.0786
   306.4405 306.8102 306.9390 306.9787 308.3221 308.8644 309.4629 309.4704
   309.6875 310.5255 310.5296 311.6701 312.6712 312.6738 313.3223 313.7025
   314.5294 315.3079 315.8284 315.8858 316.1225 316.3244 317.7617 318.7168
   318.7450 319.0010 319.3560 319.8007 320.2536 320.7898 321.0307 321.2795
   322.9657 323.2492 323.4559 323.6017 324.0972 324.2247 324.8145 327.2549
   327.4640 328.0539 329.3730 329.6627 329.7729 330.7456 331.5526 333.3961
   333.5340 334.7213 335.2629 335.9550 336.3057 337.0386 338.0715 338.3506
   338.4185 338.6908 340.2681 340.3538 341.2063 341.3716 342.3079 342.6951
   342.9558 343.0991 343.1800 343.7104 343.9058 345.0605 345.4474 345.7565
   345.7735 346.5785 347.0881 347.6527 348.1685 349.1383 349.1909 349.6533
   349.9056 349.9583 351.2243 351.2863 351.7690 352.4506 352.9020 353.2597
   353.8557 355.3122 355.4004 356.0492 357.1388 357.3916 358.2267 358.6322
   358.7990 359.0178 360.4481 360.5147 360.6005 360.6931 361.0094 361.9545
   362.1280 362.9901 363.7458 364.2176 364.9183 365.1922 366.2911 366.4561
   368.3590 368.8747 369.5906 369.6551 370.0466 370.3446 370.8504 371.3344
   371.9637 372.1193 372.4775 372.7820 373.3682 373.6301 373.7788 374.0572
   375.3467 375.9613 376.1176 376.4470 376.4748 377.0030 377.3012 377.7553
   377.8050 378.2728 378.5643 378.6721 378.8293 379.0045 379.1388 379.3991
   379.4184 379.6945 379.9445 380.7032 381.0175 381.3455 381.8239 382.4581
   382.7667 383.3538 383.8025 384.9243 385.1076 385.1090 385.6008 385.6169
   385.9098 386.3833 386.4592 387.7087 388.0163 388.1370 388.5169 389.0475
   389.0651 389.8635 390.0280 390.3442 391.6012 391.8222 392.2501 392.5010
   392.7054 393.1752 393.3696 393.8534 394.1824 394.4155 394.9131 394.9880
   395.4281 396.4593 398.3342 398.5042 398.9825 399.0489 399.6735 400.0464
   400.1992 400.2413 400.2506 400.3028 400.6938 401.1012 401.4704 401.4761
   402.2431 402.6949 402.7435 403.4547 403.8853 404.1880 404.1976 404.6766
   404.7219 404.7843 405.1158 405.6062 405.7981 406.3624 406.5479 407.1909
   407.4805 407.5243 408.1619 408.8825 409.0770 409.1700 409.4917 409.7476
   409.7574 410.0466 410.2136 410.3050 410.5142 410.5647 411.4068 412.0702
   412.4485 412.5252 412.6586 412.7791 412.9891 413.0738 414.1187 414.1438
   414.3295 414.6590 415.2460 415.5108 415.6674 415.7391 415.8395 415.9526
   415.9964 416.0849 418.5097 418.6382 418.6978 418.8639 418.9870 419.0676
   419.4676 419.5567 420.2362 420.6764 420.7912 420.9020 421.5135 421.5230
   421.9982 421.9994 422.1609 422.4300 423.0830 423.1205 423.1331 423.7309
   423.8720 424.3983 424.5474 424.6350 425.0710 425.2756 426.0387 426.0610
   426.3581 426.4490 426.5517 426.8176 428.2424 428.3679 428.6004 428.7844
   428.8870 428.9956 429.1917 429.2025 430.7632 430.8224 431.0690 431.1384
   431.2221 431.3110 431.3744 432.6358 433.0657 433.9606 434.1417 434.4576
   434.5538 434.8204 435.1021 435.7846 436.2780 436.4531 436.7172 437.0862
   437.1929 437.3814 437.3984 437.4715 437.6295 437.7598 437.8924 438.1639
   438.8257 439.0040 439.3245 439.4210 439.4212 440.4543 440.6312 440.6907
   440.8035 442.1048 442.1324 442.7544 442.9450 443.2905 443.7305 443.9411
   444.2989 444.3730 444.4845 444.9447 445.0110 445.1581 445.3028 445.3735
   445.4982 445.6071 446.4505 446.7885

          k = 0.0000 0.0962 0.1253 (  2431 PWs)   bands (ev):

   -12.9750 -12.8235  -1.2676  -0.2145   2.4913   2.5088   2.7735   2.7936
    10.7408  13.0539  15.7402  15.8317  16.4419  16.5020  16.7926  16.9670
    19.6701  19.9816  28.0134  29.3570  30.1702  30.6521  31.8016  32.0837
    33.5408  33.9144  35.4424  37.7211  38.1272  39.2327  39.3205  40.6962
    40.9234  41.9561  43.0367  44.0814  44.6302  45.7097  46.0986  46.4961
    47.6181  48.7414  49.2515  49.9420  54.6900  55.0998  55.7314  56.5759
    56.8423  57.9965  59.8815  60.0152  60.7316  62.1560  65.1148  66.0361
    66.5949  67.5982  68.8345  70.3252  73.8307  75.0974  75.3619  75.5761
    78.3227  78.5752  78.8943  82.0254  82.3560  83.0203  84.4788  85.8882
    86.5704  87.3050  87.4613  88.4196  89.9752  90.5009  90.7818  90.8571
    91.7103  91.7923  92.9587  93.1185  95.6863  96.1264  96.7925  97.2082
    97.6148  98.3444  98.5315  99.5445  99.9331 100.6738 101.5869 102.1339
   102.2061 102.4732 104.1495 105.9748 105.9877 106.4865 106.7203 106.7876
   107.0232 107.6231 108.2618 108.9099 109.4193 110.1930 111.5297 113.5630
   113.5900 114.2400 114.6725 115.5210 116.8361 117.5163 118.1458 118.6067
   118.7127 119.2512 119.7212 120.1203 120.8552 121.6094 122.0808 122.3640
   122.5399 122.9421 123.4521 123.9521 124.3328 125.4809 125.7204 126.3410
   126.5668 127.4125 127.6681 128.1273 129.3373 130.3863 130.4336 131.6344
   131.7529 133.1386 133.5571 134.4070 134.4479 134.5022 135.5100 135.8676
   136.6373 136.8236 136.8500 138.4111 138.4119 138.9308 139.3250 140.4100
   141.4051 141.4897 141.7522 142.3681 143.5494 144.5939 144.8487 145.2232
   145.8041 146.5093 148.4147 148.7252 150.0672 150.2067 151.0289 151.3916
   151.5376 152.0266 153.5280 154.2646 155.2847 156.3078 156.3793 157.4274
   158.5920 158.8530 160.2789 160.3510 160.4991 160.5101 161.4367 161.9510
   163.9188 164.8474 165.3589 167.2419 168.0703 168.6133 169.1038 169.9822
   170.3830 170.5058 170.9549 172.5141 173.7076 174.3430 174.4817 175.5437
   176.6957 177.6607 177.9472 178.2595 179.2639 179.4823 181.7361 181.9088
   182.1726 183.3623 183.4490 184.4526 186.8696 187.2412 187.6181 188.4859
[...]
   358.6985 359.0300 360.1012 360.1012 362.8625 366.6228 366.9305 366.9305
   367.3033 367.8990 367.8990 368.0180 368.1503 368.1503 368.6319 368.6319
   368.6500 368.8386 369.4671 369.4671 369.9668 370.0243 370.0243 372.1469
   372.5671 372.5671 373.0744 373.2099 373.2099 374.2879 374.6719 374.8451
   374.8451 374.9689 375.5391 375.5391 375.6669 375.6669 376.4108 376.6192
   376.6192 378.7830 378.9597 378.9597 379.9120 379.9325 379.9325 381.6487
   381.6644 381.6644 382.6762 382.6762 383.2274 383.2274 383.2499 385.0357
   386.7353 386.7353 386.9481 387.4852 387.4852 387.9374 388.0054 388.0054
   388.4300 391.2614 391.6332 391.6332 394.8223 394.8223 395.5085 396.0278
   396.0278 396.1599 396.2018 396.2018 396.2265 396.4137 396.4137 397.0688
   397.6836 397.6836 398.1860 398.3186 398.3186 399.5706 399.6445 399.6445
   399.9404 399.9404 399.9443 400.7771 401.0765 401.0765 401.8574 401.8574
   401.9916 403.5294 403.5907 403.5907 404.1778 404.2192 404.2888 404.2888
   404.4848 404.4848 404.8521 405.3063 405.4907 405.4907 406.8718 406.8718
   406.9307 408.7539 408.7539 409.5592 409.5941 409.9309 409.9309 411.6460
   412.8624 412.8624 413.9933 414.1682 414.1682 414.3274 414.3369 414.3990
   414.3990 414.6074 414.6074 415.4716 415.4716 416.0407 416.0737 416.0737
   416.1557 417.3024 417.3024 417.5441 417.6143 418.1780 418.1780 419.3658
   419.3658 420.2302 420.9668 421.0200 421.0200 421.0538 421.3292 421.3292
   421.4115 421.4115 421.4367 421.6602 421.6602 422.0295 422.0295 422.0470
   425.5966 425.6955 425.6955 429.5781 430.1139 430.1139 430.4363 430.7152
   430.7152 431.0190 432.3362 432.3844 432.3844 432.6777 432.6777 433.1210
   434.1063 434.1063 434.2110 434.5601 435.2141 435.2141 437.1237 437.1237
   437.3232 440.9400 440.9853 440.9853 443.3139 443.9670 443.9670 444.5116
   444.5116 444.6849 445.2906 445.5104 445.5104 445.6420 445.7634 445.7634
   445.8835 446.0472 446.0472 446.3882 446.8819 446.8819 448.0000 448.0000
   448.4099 449.0004 449.0900 449.0900 453.1584 453.1584 453.9495 453.9495
   454.0019 454.4779 455.0413 455.0413 455.0749 456.5860 456.5860 457.8560
   457.9281 457.9281 458.0113 458.6424

          k = 0.3333 0.5774 0.1253 (  2397 PWs)   bands (ev):

    -9.2868  -9.2868  -3.5950  -3.5132  -2.6590  -2.6590   4.3658   4.3658
     8.9382   8.9382  15.3658  16.8349  17.8732  17.8732  21.4486  21.8945
    22.2201  22.2201  23.2783  23.2783  25.4334  25.4334  28.2323  31.7473
    31.9380  32.4908  36.8139  36.8139  39.3086  39.3086  43.0089  44.1703
    44.1703  46.2853  46.4384  46.4384  47.0176  50.5082  50.5082  52.8221
    53.0332  53.0332  54.3482  55.2229  55.2229  57.5528  57.5528  59.2800
    61.9275  62.0934  62.5570  62.5570  62.9569  62.9569  65.6099  65.6099
    69.0358  69.0358  70.8538  72.0933  73.3039  73.3039  73.9007  75.2167
    75.9097  75.9097  76.7080  76.7080  78.6980  79.1149  79.1149  79.3353
    79.3353  79.4374  80.6165  80.9534  81.6235  81.6235  82.7980  84.4996
    84.4996  86.9018  87.9184  87.9184  88.5209  88.5209  88.6028  91.5475
    91.5475  93.7867  95.0251  95.0251  95.9963  96.6331  96.6331  99.2760
   100.1206 101.0303 101.0303 103.0718 103.5035 103.5035 104.6207 104.6207
   106.9349 107.5531 107.5531 108.0228 108.4709 108.8521 108.8521 111.1449
   111.3093 112.4189 112.4189 114.0916 114.0916 115.8091 116.6526 116.6526
   116.8362 117.0621 123.0770 123.0770 125.3709 126.9185 126.9185 127.5982
   127.5982 129.2421 129.2421 129.8585 129.8585 131.4384 132.4461 134.2114
   134.8908 134.8908 136.6646 136.6646 137.7926 137.7926 138.9789 140.2554
   140.2554 140.3803 140.7353 140.7353 141.1478 141.4303 141.5178 141.5178
   142.0009 142.5577 142.5577 142.6457 144.8072 144.8072 145.2459 146.1678
   146.3966 146.8064 146.8064 148.5913 149.2290 149.2290 149.8313 149.8313
   151.3430 151.3430 152.2885 152.2885 153.2903 153.4422 154.1434 154.1434
   155.9903 155.9903 156.1553 156.7468 158.3187 159.8884 159.8884 161.1884
   161.1884 164.8328 165.5138 165.5138 166.4770 166.4942 168.0461 168.0461
   169.2056 169.5052 169.5052 170.0791 170.0791 170.2101 171.8438 172.2528
   172.2528 172.9223 172.9223 173.1726 174.1061 174.4041 174.4041 176.1638
   177.2201 177.2201 177.7805 177.8786 178.3189 178.3546 178.3546 178.7434
   178.7434 179.6872 179.6872 180.8476 181.3679 181.4641 181.4641 182.3246
   182.3246 183.8609 183.8609 185.6693 185.6693 185.8633 186.0245 187.1303
   187.1303 187.8019 188.6324 188.6324 189.1467 189.5446 190.3455 190.3455
   195.5853 195.5853 195.7516 197.0061 197.0061 198.2272 198.6425 198.6425
   199.2643 199.7080 199.7460 199.7460 200.5384 200.5384 203.1746 203.1746
   203.8932 204.2103 204.2103 204.4949 204.8398 205.2134 205.4618 205.4618
   205.8308 205.8308 206.0679 206.2123 206.2123 206.4677 206.5038 206.7400
   206.7400 209.4340 209.5139 209.5139 212.0237 212.0237 212.2877 213.6868
   213.6868 213.8157 213.8504 214.5676 214.5676 214.8470 214.8470 216.0398
   217.8720 217.8720 219.1840 219.3552 219.5890 219.5890 219.6272 219.8772
   219.8772 222.1575 222.4443 222.4443 225.3040 225.3040 225.5294 226.8794
   227.7318 227.7318 229.4654 229.4654 230.4573 231.3389 231.9803 231.9803
   232.4236 232.4236 233.3047 233.3637 233.3637 234.0608 234.0608 234.3758
   235.5092 236.1439 236.1439 237.3463 238.1545 238.1545 238.4757 240.4602
   240.4602 241.8537 243.0083 243.0083 243.0085 243.2092 243.4078 243.4078
   244.0069 244.8464 244.9417 244.9417 245.7782 245.7782 249.1077 249.1077
   250.3202 251.8089 251.8089 255.4243 255.4243 255.5515 256.9666 257.8228
   257.8228 258.7234 259.0139 259.0139 260.3107 261.1898 261.1898 261.3396
   261.8136 263.0022 263.0022 263.8215 264.0228 264.0228 265.5603 265.5603
   266.3766 266.3766 266.6569 266.6588 266.9511 267.9954 267.9954 268.7494
   268.7494 268.7593 269.5531 270.1037 270.1037 270.9091 270.9091 271.1444
   272.0945 272.0945 272.3049 272.3393 272.4224 273.8978 273.8978 276.4732
   276.4732 277.1527 277.2897 277.2897 278.0563 278.1505 278.1505 279.8271
   279.8581 279.8581 281.1759 281.1759 281.4329 282.2462 282.2462 282.4882
   284.8597 284.8597 285.1479 287.6675 287.6675 288.8484 288.8557 288.8557
   289.1466 290.4418 290.4418 290.6817 292.2149 292.2149 295.7906 295.7906
   296.0430 296.2791 296.2791 296.3896 296.8565 297.7552 297.7552 298.7378
   298.9567 298.9567 299.1826 300.1496 300.1832 300.1832 301.3460 301.3460
   301.6274 301.6339 301.6339 301.9892 302.1779 302.2736 302.2736 302.4718
   303.5412 303.5412 304.1168 304.1439 304.3102 304.3102 304.4384 304.4384
   304.7873 304.7873 305.5106 306.0346 306.1608 306.1608 308.4973 308.5585
   308.5585 309.6604 309.6604 310.1469 310.3531 310.8434 310.8434 310.9408
   311.1791 311.1791 312.8751 312.8751 313.9806 314.1680 314.1680 314.5410
   314.6119 314.6119 314.8805 315.6868 315.6868 316.5070 316.8862 317.3291
   317.3291 317.6856 317.6856 317.7029 318.1675 318.1675 321.2110 321.4115
   321.4115 323.2186 323.2257 323.2257 324.3267 325.0242 325.4623 325.4623
   327.1568 327.4750 327.4750 327.6270 327.6270 328.0796 328.4800 328.4800
   329.0900 329.0900 329.0921 330.6295 330.7353 330.7353 330.8011 330.8692
   331.1191 331.1191 331.2440 331.2497 331.2497 331.3375 331.7133 331.7133
   332.3703 332.4308 332.4308 334.3623 334.3623 334.3705 335.0638 335.0638
   335.3871 335.8572 336.6427 336.6427 337.2452 337.2452 337.4959 340.5256
   340.7858 340.7858 342.2232 342.4405 342.4405 343.2178 343.3726 343.3726
   343.8149 343.8274 343.8274 345.0486 345.2368 345.2368 346.5610 346.5768
   346.5768 348.7649 348.7649 349.0165 349.3503 349.3503 351.3904 351.5224
   351.5224 352.0191 354.4426 354.4555 354.4555 354.5204 354.5832 354.5832
   355.5432 355.8091 355.8091 357.8970 357.8970 358.3679 359.6547 359.6547
   359.7277 360.0827 360.0827 361.9011 362.0648 362.0964 362.0964 362.3869
   362.3869 362.6093 363.3070 363.3070 364.0787 364.0787 364.4372 364.5944
   364.5944 364.8469 365.0799 365.3607 365.3607 365.8960 366.5200 366.6480
   366.6480 367.5475 367.5475 369.2684 369.6196 369.6196 369.6916 373.8630
   374.1830 374.1830 374.4317 374.6898 374.9310 375.2619 375.2619 375.4600
   375.4600 375.6494 375.6494 376.1353 376.1773 376.1773 376.7711 376.9193
   376.9193 377.4528 377.4528 377.8574 381.0855 381.0855 381.4942 383.2385
   383.3963 383.3963 384.1090 384.1090 385.4134 385.4134 385.4418 385.6781
   385.6781 385.7251 386.1699 387.0772 387.0772 387.4201 387.4201 387.4730
   387.9874 388.0179 388.0179 392.2418 392.2763 392.2763 392.5934 392.7641
   392.7641 392.8331 393.2180 393.2180 393.3122 393.7819 393.7901 393.7901
   394.9160 394.9160 396.3162 396.3263 396.3387 396.3387 396.7075 396.7075
   396.8659 396.8659 396.8887 397.1358 397.5091 397.5091 397.8207 398.1833
   398.1833 398.2206 398.4649 398.5671 398.5671 399.5621 399.6191 399.6191
   400.5222 400.5266 400.5266 406.3460 406.3542 406.3779 406.3779 406.5524
   406.5524 408.0773 408.1826 408.1826 411.4361 411.4847 411.4847 411.5299
   411.6892 411.6892 415.5352 415.6003 415.6003 415.7687 415.9536 415.9536
   417.8381 417.8381 418.3316 418.7108 418.7108 420.6652 420.6652 421.0447
   421.0708 421.7388 422.5676 422.5676 423.9056 423.9056 424.1453 424.6455
   425.0712 425.0712 425.2826 425.2826 425.8438 425.9629 426.7337 426.7337
   426.8772 427.0945 427.0945 427.7153 427.9707 427.9707 429.1498 429.5449
   429.5449 429.9771 429.9771 430.0806 430.4356 430.4356 430.4856 430.9656
   431.1461 431.1461 431.3558 431.3558 431.4475 431.8432 432.6900 432.6900
   433.2576 433.2576 433.6299 434.0844 434.0844 435.1372 435.3324 435.3324
   438.3566 438.8752 438.8752 439.8287 439.8287 440.1504 440.3218 440.3218
   440.6488 442.2416 442.7629 442.7629 443.5983 444.7961 444.8689 445.2828
   445.3035 445.3035 445.5778 445.5778 446.1503 446.1503 447.9478 448.0144
   448.0144 449.3088 449.3108 449.3108 449.4223 449.5053 449.5053 449.7295
   449.8979 449.8979 451.2229 451.6153 451.6153 454.0977 454.0977 455.0199
   455.1917 455.1917 455.2315 457.0896

          k = 0.3333 0.5774 0.1880 (  2376 PWs)   bands (ev):

    -9.2865  -9.2865  -3.5543  -3.5543  -2.6607  -2.6607   4.3876   4.3876
     8.8834   8.8834  16.0202  16.0202  18.0628  18.0628  21.7269  21.7269
    22.1287  22.1287  23.1137  23.1137  25.4477  25.4477  30.0005  30.0005
    31.9850  31.9850  37.2103  37.2103  39.0839  39.0839  44.8000  44.8000
    45.0259  45.0259  45.4199  45.4199  49.5806  49.5806  50.1683  50.1683
    53.2262  53.2262  55.2668  55.2668  56.6558  56.6558  57.1353  57.1353
    62.0119  62.0119  62.8756  62.8756  64.5588  64.5588  66.4972  66.4972
    66.7759  66.7759  73.3426  73.3426  74.3920  74.3920  75.2167  75.2167
    75.8264  75.8264  76.1594  76.1594  77.8830  77.8830  78.0281  78.0281
    79.6390  79.6390  79.6857  79.6857  79.9781  79.9781  84.7198  84.7198
    85.5267  85.5267  87.0281  87.0281  89.9188  89.9188  90.3854  90.3854
    91.0863  91.0863  96.1258  96.1258  98.6282  98.6282  98.8949  98.8949
   101.6518 101.6518 102.6507 102.6507 103.0573 103.0573 104.6090 104.6090
   105.7322 105.7322 107.0820 107.0820 109.9895 109.9895 109.9919 109.9919
   110.3618 110.3618 111.8502 111.8502 113.4385 113.4385 115.4023 115.4023
   115.7820 115.7820 124.7140 124.7140 126.1959 126.1959 128.6691 128.6691
   129.7735 129.7735 131.5656 131.5656 133.4048 133.4048 133.6828 133.6828
   136.1307 136.1307 136.8127 136.8127 136.8345 136.8345 137.1656 137.1656
   139.5194 139.5194 139.9997 139.9997 140.2739 140.2739 142.8313 142.8313
   142.8856 142.8856 142.9587 142.9587 143.5314 143.5314 143.6803 143.6803
   145.6331 145.6331 146.8967 146.8967 150.3339 150.3339 150.3848 150.3848
   150.8230 150.8230 151.8223 151.8223 152.2158 152.2158 153.9122 153.9122
   154.8637 154.8637 155.3013 155.3013 161.3394 161.3394 161.4100 161.4100
   164.6623 164.6623 166.0931 166.0931 166.5264 166.5264 169.3047 169.3047
   170.3851 170.3851 171.9116 171.9116 172.6397 172.6397 172.9627 172.9627
   173.2946 173.2946 173.3413 173.3413 174.4262 174.4262 174.5243 174.5243
   174.5849 174.5849 175.3982 175.3982 176.2956 176.2956 176.7082 176.7082
   177.6023 177.6023 178.5109 178.5109 181.3348 181.3348 182.1451 182.1451
   183.6508 183.6508 184.0620 184.0620 186.6613 186.6613 186.6927 186.6927
   187.7514 187.7514 188.5032 188.5032 189.5897 189.5897 194.1098 194.1098
   194.6507 194.6507 195.8341 195.8341 197.2716 197.2716 200.2783 200.2783
   200.3276 200.3276 200.9963 200.9963 202.2933 202.2933 202.4916 202.4916
   203.0824 203.0824 204.2933 204.2933 204.3615 204.3615 204.5403 204.5403
   206.1789 206.1789 206.3850 206.3850 207.0480 207.0480 207.1883 207.1883
   207.3693 207.3693 207.3993 207.3993 210.7618 210.7618 211.1166 211.1166
   212.2325 212.2325 216.1545 216.1545 216.1691 216.1691 216.5807 216.5807
   216.6947 216.6947 217.0418 217.0418 217.3086 217.3086 220.6117 220.6117
   222.1965 222.1965 223.8675 223.8675 227.2302 227.2302 228.0743 228.0743
   228.5492 228.5492 229.9596 229.9596 230.3819 230.3819 231.1121 231.1121
   232.2540 232.2540 232.9199 232.9199 233.6525 233.6525 234.4963 234.4963
   236.1399 236.1399 236.3695 236.3695 237.7322 237.7322 237.8382 237.8382
   238.0915 238.0915 241.6352 241.6352 242.2826 242.2826 243.1049 243.1049
   243.1481 243.1481 245.7892 245.7892 251.3491 251.3491 252.8745 252.8745
   252.9260 252.9260 253.8793 253.8793 256.3396 256.3396 257.3786 257.3786
   257.8940 257.8940 260.4817 260.4817 260.5975 260.5975 260.9216 260.9216
   261.9595 261.9595 262.8545 262.8545 263.1056 263.1056 265.0099 265.0099
   265.3287 265.3287 265.4550 265.4550 267.2564 267.2564 267.7783 267.7783
   269.1230 269.1230 269.4698 269.4698 269.8694 269.8694 269.9888 269.9888
   272.8918 272.8918 273.0939 273.0939 273.5937 273.5937 274.5655 274.5655
   275.4922 275.4922 276.7686 276.7686 278.7975 278.7975 279.0325 279.0325
   279.1364 279.1364 279.2000 279.2000 279.5871 279.5871 281.2977 281.2977
   282.6517 282.6517 283.3249 283.3249 283.3756 283.3756 292.7711 292.7711
   294.0525 294.0525 294.1213 294.1213 294.7235 294.7235 296.2729 296.2729
   296.7693 296.7693 299.8413 299.8413 299.8726 299.8726 300.0528 300.0528
   300.1392 300.1392 300.9526 300.9526 301.0402 301.0402 301.8517 301.8517
   301.9229 301.9229 301.9733 301.9733 302.4751 302.4751 303.0608 303.0608
   303.1233 303.1233 303.2128 303.2128 303.7166 303.7166 304.0697 304.0697
   305.2677 305.2677 305.4091 305.4091 306.8955 306.8955 307.9345 307.9345
   307.9694 307.9694 311.7541 311.7541 312.0575 312.0575 312.2311 312.2311
   312.4204 312.4204 312.6127 312.6127 313.1429 313.1429 313.1671 313.1671
   313.7887 313.7887 313.8178 313.8178 314.8556 314.8556 316.7722 316.7722
   316.8184 316.8184 317.1431 317.1431 317.2956 317.2956 317.6907 317.6907
   317.6944 317.6944 322.5039 322.5039 322.5873 322.5873 322.7328 322.7328
   326.1533 326.1533 326.2128 326.2128 326.5554 326.5554 330.1838 330.1838
   330.4622 330.4622 330.5852 330.5852 331.4928 331.4928 331.5748 331.5748
   332.2219 332.2219 332.4767 332.4767 333.0846 333.0846 333.2229 333.2229
   335.2420 335.2420 335.3038 335.3038 335.3592 335.3592 336.0279 336.0279
   336.0653 336.0653 336.2946 336.2946 337.5673 337.5673 337.7245 337.7245
   337.9017 337.9017 338.5485 338.5485 338.7096 338.7096 341.2885 341.2885
   343.1076 343.1076 343.2157 343.2157 343.3534 343.3534 346.2875 346.2875
   346.2982 346.2982 346.5084 346.5084 351.3024 351.3024 351.4050 351.4050
   351.6438 351.6438 356.1035 356.1035 356.6386 356.6386 357.6528 357.6528
   359.4278 359.4278 359.4385 359.4385 359.5305 359.5305 360.3256 360.3256
   360.3590 360.3590 360.4012 360.4012 360.8573 360.8573 361.2041 361.2041
   361.5812 361.5812 365.6193 365.6193 365.6752 365.6752 365.8030 365.8030
   366.1345 366.1345 367.3075 367.3075 367.4152 367.4152 370.2508 370.2508
   370.5628 370.5628 371.8684 371.8684 373.2375 373.2375 373.4634 373.4634
   374.0651 374.0651 374.4997 374.4997 374.5809 374.5809 374.6650 374.6650
   374.9595 374.9595 375.4306 375.4306 375.5886 375.5886 375.7377 375.7377
   375.9853 375.9853 376.1120 376.1120 377.1632 377.1632 377.2154 377.2154
   381.0447 381.0447 383.8668 383.8668 383.8772 383.8772 383.9900 383.9900
   384.7955 384.7955 384.9194 384.9194 385.0144 385.0144 388.1119 388.1119
   388.1548 388.1548 388.3520 388.3520 391.4408 391.4408 391.4547 391.4547
   391.7346 391.7346 392.7523 392.7523 392.8935 392.8935 392.9303 392.9303
   393.4505 393.4505 393.5684 393.5684 393.5796 393.5796 397.7454 397.7454
   397.7497 397.7497 397.7701 397.7701 397.7720 397.7720 397.7761 397.7761
   397.8261 397.8261 400.6206 400.6206 400.6777 400.6777 400.8726 400.8726
   405.6371 405.6371 405.9035 405.9035 406.1043 406.1043 406.4622 406.4622
   406.4807 406.4807 408.7452 408.7452 408.7482 408.7482 408.8639 408.8639
   408.9345 408.9345 409.0072 409.0072 409.0555 409.0555 409.2741 409.2741
   421.5536 421.5536 421.7315 421.7315 421.8880 421.8880 424.1761 424.1761
   424.2663 424.2663 425.0915 425.0915 427.0380 427.0380 427.2695 427.2695
   428.2180 428.2180 428.9727 428.9727 429.3026 429.3026 429.4081 429.4081
   429.8602 429.8602 430.2472 430.2472 430.7454 430.7454 430.7627 430.7627
   431.2826 431.2826 431.9909 431.9909 432.7183 432.7183 433.2090 433.2090
   433.3605 433.3605 433.4890 433.4890 433.7183 433.7183 433.7392 433.7392
   435.0272 435.0272 435.8417 435.8417 436.0805 436.0805 437.3389 437.3389
   437.4750 437.4750 437.5109 437.5109 439.8317 439.8317 439.8362 439.8362
   439.8901 439.8901 440.5487 440.5487 440.7240 440.7240 440.7343 440.7343
   442.2812 442.2812 442.3726 442.3726 443.3512 443.3512 445.0468 445.0468
   445.3785 445.3785 445.4153 445.4153 446.8049 446.8049 446.8552 446.8552
   448.7044 448.7044 448.7204 448.7204 448.8056 448.8056 454.1771 454.1771
   454.1781 454.1781 454.5108 454.5109

     Writing output data file BN.save/
 
     init_run     :      1.49s CPU      0.73s WALL (       1 calls)
     electrons    :   3240.69s CPU    914.41s WALL (       1 calls)

     Called by init_run:
     wfcinit      :      0.07s CPU      0.03s WALL (       1 calls)
     wfcinit:atom :      0.05s CPU      0.02s WALL (       1 calls)
     wfcinit:wfcr :     26.99s CPU      7.05s WALL (       1 calls)
     potinit      :      0.36s CPU      0.12s WALL (       1 calls)
     hinit0       :      1.03s CPU      0.53s WALL (       1 calls)

     Called by electrons:
     c_bands      :   3240.59s CPU    914.19s WALL (       1 calls)
     v_of_rho     :      0.04s CPU      0.01s WALL (       1 calls)
     v_h          :      0.01s CPU      0.00s WALL (       1 calls)
     v_xc         :      0.02s CPU      0.01s WALL (       1 calls)

     Called by c_bands:
     init_us_2    :      0.01s CPU      0.00s WALL (       1 calls)
     ccgdiagg     :   3046.25s CPU    831.47s WALL (       6 calls)
     wfcrot       :    148.91s CPU     38.02s WALL (       6 calls)

     Called by sum_band:

     Called by *cgdiagg:
     h_psi        :    574.02s CPU    155.64s WALL (   44309 calls)
     cdiaghg      :     58.24s CPU     14.97s WALL (       6 calls)

     Called by h_psi:
     h_psi:pot    :    551.10s CPU    148.95s WALL (   44309 calls)
     h_psi:calbec :     84.02s CPU     11.91s WALL (   44309 calls)
     vloc_psi     :    408.33s CPU    122.41s WALL (   44309 calls)
     add_vuspsi   :     47.71s CPU     11.79s WALL (   44309 calls)
     hs_1psi      :    571.15s CPU    148.46s WALL (   44303 calls)
     s_1psi       :     65.05s CPU     17.34s WALL (   44303 calls)

     General routines
     calbec       :    112.79s CPU     23.37s WALL (   88612 calls)
     fft          :      0.02s CPU      0.05s WALL (       4 calls)
     fftw         :    193.77s CPU    102.89s WALL (   98446 calls)
     davcio       :      0.50s CPU      0.25s WALL (       2 calls)
 
     Parallel routines
 
     PWSCF        :  54m11.07s CPU  15m29.89s WALL

 
   This run was terminated on:  19:51: 3  26Apr2020            

=------------------------------------------------------------------------------=
   JOB DONE.
=------------------------------------------------------------------------------=
