
     Program PWSCF v.6.4.1 starts on 23Apr2020 at 17:27:43 

     This program is part of the open-source Quantum ESPRESSO suite
     for quantum simulation of materials; please cite
         "P. Giannozzi et al., J. Phys.:Condens. Matter 21 395502 (2009);
         "P. Giannozzi et al., J. Phys.:Condens. Matter 29 465901 (2017);
          URL http://www.quantum-espresso.org", 
     in publications or presentations arising from this work. More details at
     http://www.quantum-espresso.org/quote

     Parallel version (MPI & OpenMP), running on     256 processor cores
     Number of MPI processes:                64
     Threads/MPI process:                     4

     MPI processes distributed on     1 nodes
     K-points division:     npool     =      64
     Waiting for input...
     Reading input from standard input
Warning: card &IONS ignored
Warning: card / ignored
Warning: card &CELL ignored
Warning: card / ignored

     Current dimensions of program PWSCF are:
     Max number of different atomic species (ntypx) = 10
     Max number of k-points (npk) =  40000
     Max angular momentum in pseudopotentials (lmaxx) =  3
               file b.cpi.UPF: wavefunction(s)  3d 4f renormalized
               file n.cpi.UPF: wavefunction(s)  3d 4f renormalized

     Subspace diagonalization in iterative solution of the eigenvalue problem:
     a serial algorithm will be used

 
     G-vector sticks info
     --------------------
     sticks:   dense  smooth     PW     G-vecs:    dense   smooth      PW
     Sum         433     433    151                19375    19375    3741
 


     bravais-lattice index     =            4
     lattice parameter (alat)  =       4.7319  a.u.
     unit-cell volume          =     244.0890 (a.u.)^3
     number of atoms/cell      =            4
     number of atomic types    =            2
     number of electrons       =        16.00
     number of Kohn-Sham states=           16
     kinetic-energy cutoff     =      70.0000  Ry
     charge density cutoff     =     280.0000  Ry
     convergence threshold     =      1.0E-10
     mixing beta               =       0.7000
     number of iterations used =            8  plain     mixing
     Exchange-correlation      = SLA  PZ   NOGX NOGC ( 1  1  0  0 0 0)

     celldm(1)=   4.731874  celldm(2)=   0.000000  celldm(3)=   2.660224
     celldm(4)=   0.000000  celldm(5)=   0.000000  celldm(6)=   0.000000

     crystal axes: (cart. coord. in units of alat)
               a(1) = (   1.000000   0.000000   0.000000 )  
               a(2) = (  -0.500000   0.866025   0.000000 )  
               a(3) = (   0.000000   0.000000   2.660224 )  

     reciprocal axes: (cart. coord. in units 2 pi/alat)
               b(1) = (  1.000000  0.577350  0.000000 )  
               b(2) = (  0.000000  1.154701  0.000000 )  
               b(3) = (  0.000000  0.000000  0.375908 )  


     PseudoPot. # 1 for B  read from file:
     ./b.cpi.UPF
     MD5 check sum: aadced629ac320abbac2d4088521b25e
     Pseudo is Norm-conserving + core correction, Zval =  3.0
     Generated by new atomic code, or converted to UPF format
     Using radial grid of  453 points,  3 beta functions with: 
                l(1) =   0
                l(2) =   1
                l(3) =   2

     PseudoPot. # 2 for N  read from file:
     ./n.cpi.UPF
     MD5 check sum: ff6dad263d6aed986b71703111ab3f52
     Pseudo is Norm-conserving, Zval =  5.0
     Generated by new atomic code, or converted to UPF format
     Using radial grid of  467 points,  3 beta functions with: 
                l(1) =   0
                l(2) =   1
                l(3) =   2

     atomic species   valence    mass     pseudopotential
        B              3.00    10.81100     B ( 1.00)
        N              5.00    14.00700     N ( 1.00)

     24 Sym. Ops., with inversion, found (12 have fractional translation)


                                    s                        frac. trans.

      isym =  1     identity                                     

 cryst.   s( 1) = (     1          0          0      )
                  (     0          1          0      )
                  (     0          0          1      )

 cart.    s( 1) = (  1.0000000  0.0000000  0.0000000 )
                  (  0.0000000  1.0000000  0.0000000 )
                  (  0.0000000  0.0000000  1.0000000 )


      isym =  2     180 deg rotation - cart. axis [0,0,1]        

 cryst.   s( 2) = (    -1          0          0      )    f =(  0.0000000 )
                  (     0         -1          0      )       (  0.0000000 )
                  (     0          0          1      )       (  0.5000000 )

 cart.    s( 2) = ( -1.0000000  0.0000000  0.0000000 )    f =(  0.0000000 )
                  (  0.0000000 -1.0000000  0.0000000 )       (  0.0000000 )
                  (  0.0000000  0.0000000  1.0000000 )       (  1.3301118 )


      isym =  3     180 deg rotation - cart. axis [0,1,0]        

 cryst.   s( 3) = (    -1          0          0      )    f =(  0.0000000 )
                  (     1          1          0      )       (  0.0000000 )
                  (     0          0         -1      )       (  0.5000000 )

 cart.    s( 3) = ( -1.0000000  0.0000000  0.0000000 )    f =(  0.0000000 )
                  (  0.0000000  1.0000000  0.0000000 )       (  0.0000000 )
                  (  0.0000000  0.0000000 -1.0000000 )       (  1.3301118 )


      isym =  4     180 deg rotation - cart. axis [1,0,0]        

 cryst.   s( 4) = (     1          0          0      )
                  (    -1         -1          0      )
                  (     0          0         -1      )

 cart.    s( 4) = (  1.0000000  0.0000000  0.0000000 )
                  (  0.0000000 -1.0000000  0.0000000 )
                  (  0.0000000  0.0000000 -1.0000000 )


      isym =  5      60 deg rotation - cryst. axis [0,0,1]       

 cryst.   s( 5) = (     1          1          0      )    f =(  0.0000000 )
                  (    -1          0          0      )       (  0.0000000 )
                  (     0          0          1      )       (  0.5000000 )

 cart.    s( 5) = (  0.5000000 -0.8660254  0.0000000 )    f =(  0.0000000 )
                  (  0.8660254  0.5000000  0.0000000 )       (  0.0000000 )
                  (  0.0000000  0.0000000  1.0000000 )       (  1.3301118 )


      isym =  6      60 deg rotation - cryst. axis [0,0,-1]      

 cryst.   s( 6) = (     0         -1          0      )    f =(  0.0000000 )
                  (     1          1          0      )       ( -0.0000000 )
                  (     0          0          1      )       (  0.5000000 )

 cart.    s( 6) = (  0.5000000  0.8660254  0.0000000 )    f =(  0.0000000 )
                  ( -0.8660254  0.5000000  0.0000000 )       ( -0.0000000 )
                  (  0.0000000  0.0000000  1.0000000 )       (  1.3301118 )


      isym =  7     120 deg rotation - cryst. axis [0,0,1]       

 cryst.   s( 7) = (     0          1          0      )
                  (    -1         -1          0      )
                  (     0          0          1      )

 cart.    s( 7) = ( -0.5000000 -0.8660254  0.0000000 )
                  (  0.8660254 -0.5000000  0.0000000 )
                  (  0.0000000  0.0000000  1.0000000 )


      isym =  8     120 deg rotation - cryst. axis [0,0,-1]      

 cryst.   s( 8) = (    -1         -1          0      )
                  (     1          0          0      )
                  (     0          0          1      )

 cart.    s( 8) = ( -0.5000000  0.8660254  0.0000000 )
                  ( -0.8660254 -0.5000000  0.0000000 )
                  (  0.0000000  0.0000000  1.0000000 )


      isym =  9     180 deg rotation - cryst. axis [1,-1,0]      

 cryst.   s( 9) = (     0         -1          0      )    f =(  0.0000000 )
                  (    -1          0          0      )       (  0.0000000 )
                  (     0          0         -1      )       (  0.5000000 )

 cart.    s( 9) = (  0.5000000 -0.8660254  0.0000000 )    f =(  0.0000000 )
                  ( -0.8660254 -0.5000000  0.0000000 )       (  0.0000000 )
                  (  0.0000000  0.0000000 -1.0000000 )       (  1.3301118 )


      isym = 10     180 deg rotation - cryst. axis [2,1,0]       

 cryst.   s(10) = (     1          1          0      )    f =(  0.0000000 )
                  (     0         -1          0      )       ( -0.0000000 )
                  (     0          0         -1      )       (  0.5000000 )

 cart.    s(10) = (  0.5000000  0.8660254  0.0000000 )    f =(  0.0000000 )
                  (  0.8660254 -0.5000000  0.0000000 )       ( -0.0000000 )
                  (  0.0000000  0.0000000 -1.0000000 )       (  1.3301118 )


      isym = 11     180 deg rotation - cryst. axis [0,1,0]       

 cryst.   s(11) = (    -1         -1          0      )
                  (     0          1          0      )
                  (     0          0         -1      )

 cart.    s(11) = ( -0.5000000 -0.8660254  0.0000000 )
                  ( -0.8660254  0.5000000  0.0000000 )
                  (  0.0000000  0.0000000 -1.0000000 )


      isym = 12     180 deg rotation - cryst. axis [1,1,0]       

 cryst.   s(12) = (     0          1          0      )
                  (     1          0          0      )
                  (     0          0         -1      )

 cart.    s(12) = ( -0.5000000  0.8660254  0.0000000 )
                  (  0.8660254  0.5000000  0.0000000 )
                  (  0.0000000  0.0000000 -1.0000000 )


      isym = 13     inversion                                    

 cryst.   s(13) = (    -1          0          0      )
                  (     0         -1          0      )
                  (     0          0         -1      )

 cart.    s(13) = ( -1.0000000  0.0000000  0.0000000 )
                  (  0.0000000 -1.0000000  0.0000000 )
                  (  0.0000000  0.0000000 -1.0000000 )


      isym = 14     inv. 180 deg rotation - cart. axis [0,0,1]   

 cryst.   s(14) = (     1          0          0      )    f =(  0.0000000 )
                  (     0          1          0      )       (  0.0000000 )
                  (     0          0         -1      )       (  0.5000000 )

 cart.    s(14) = (  1.0000000  0.0000000  0.0000000 )    f =(  0.0000000 )
                  (  0.0000000  1.0000000  0.0000000 )       (  0.0000000 )
                  (  0.0000000  0.0000000 -1.0000000 )       (  1.3301118 )


      isym = 15     inv. 180 deg rotation - cart. axis [0,1,0]   

 cryst.   s(15) = (     1          0          0      )    f =(  0.0000000 )
                  (    -1         -1          0      )       (  0.0000000 )
                  (     0          0          1      )       (  0.5000000 )

 cart.    s(15) = (  1.0000000  0.0000000  0.0000000 )    f =(  0.0000000 )
                  (  0.0000000 -1.0000000  0.0000000 )       (  0.0000000 )
                  (  0.0000000  0.0000000  1.0000000 )       (  1.3301118 )


      isym = 16     inv. 180 deg rotation - cart. axis [1,0,0]   

 cryst.   s(16) = (    -1          0          0      )
                  (     1          1          0      )
                  (     0          0          1      )

 cart.    s(16) = ( -1.0000000  0.0000000  0.0000000 )
                  (  0.0000000  1.0000000  0.0000000 )
                  (  0.0000000  0.0000000  1.0000000 )


      isym = 17     inv.  60 deg rotation - cryst. axis [0,0,1]  

 cryst.   s(17) = (    -1         -1          0      )    f =(  0.0000000 )
                  (     1          0          0      )       (  0.0000000 )
                  (     0          0         -1      )       (  0.5000000 )

 cart.    s(17) = ( -0.5000000  0.8660254  0.0000000 )    f =(  0.0000000 )
                  ( -0.8660254 -0.5000000  0.0000000 )       (  0.0000000 )
                  (  0.0000000  0.0000000 -1.0000000 )       (  1.3301118 )


      isym = 18     inv.  60 deg rotation - cryst. axis [0,0,-1] 

 cryst.   s(18) = (     0          1          0      )    f =(  0.0000000 )
                  (    -1         -1          0      )       ( -0.0000000 )
                  (     0          0         -1      )       (  0.5000000 )

 cart.    s(18) = ( -0.5000000 -0.8660254  0.0000000 )    f =(  0.0000000 )
                  (  0.8660254 -0.5000000  0.0000000 )       ( -0.0000000 )
                  (  0.0000000  0.0000000 -1.0000000 )       (  1.3301118 )


      isym = 19     inv. 120 deg rotation - cryst. axis [0,0,1]  

 cryst.   s(19) = (     0         -1          0      )
                  (     1          1          0      )
                  (     0          0         -1      )

 cart.    s(19) = (  0.5000000  0.8660254  0.0000000 )
                  ( -0.8660254  0.5000000  0.0000000 )
                  (  0.0000000  0.0000000 -1.0000000 )


      isym = 20     inv. 120 deg rotation - cryst. axis [0,0,-1] 

 cryst.   s(20) = (     1          1          0      )
                  (    -1          0          0      )
                  (     0          0         -1      )

 cart.    s(20) = (  0.5000000 -0.8660254  0.0000000 )
                  (  0.8660254  0.5000000  0.0000000 )
                  (  0.0000000  0.0000000 -1.0000000 )


      isym = 21     inv. 180 deg rotation - cryst. axis [1,-1,0] 

 cryst.   s(21) = (     0          1          0      )    f =(  0.0000000 )
                  (     1          0          0      )       (  0.0000000 )
                  (     0          0          1      )       (  0.5000000 )

 cart.    s(21) = ( -0.5000000  0.8660254  0.0000000 )    f =( -0.0000000 )
                  (  0.8660254  0.5000000  0.0000000 )       (  0.0000000 )
                  (  0.0000000  0.0000000  1.0000000 )       (  1.3301118 )


      isym = 22     inv. 180 deg rotation - cryst. axis [2,1,0]  

 cryst.   s(22) = (    -1         -1          0      )    f =(  0.0000000 )
                  (     0          1          0      )       ( -0.0000000 )
                  (     0          0          1      )       (  0.5000000 )

 cart.    s(22) = ( -0.5000000 -0.8660254  0.0000000 )    f =(  0.0000000 )
                  ( -0.8660254  0.5000000  0.0000000 )       ( -0.0000000 )
                  (  0.0000000  0.0000000  1.0000000 )       (  1.3301118 )


      isym = 23     inv. 180 deg rotation - cryst. axis [0,1,0]  

 cryst.   s(23) = (     1          1          0      )
                  (     0         -1          0      )
                  (     0          0          1      )

 cart.    s(23) = (  0.5000000  0.8660254  0.0000000 )
                  (  0.8660254 -0.5000000  0.0000000 )
                  (  0.0000000  0.0000000  1.0000000 )


      isym = 24     inv. 180 deg rotation - cryst. axis [1,1,0]  

 cryst.   s(24) = (     0         -1          0      )
                  (    -1          0          0      )
                  (     0          0          1      )

 cart.    s(24) = (  0.5000000 -0.8660254  0.0000000 )
                  ( -0.8660254 -0.5000000  0.0000000 )
                  (  0.0000000  0.0000000  1.0000000 )


     point group D_6h(6/mmm)
     there are 12 classes
     the character table:

       E     2C6   2C3   C2    3C2'  3C2'' i     2S3   2S6   s_h   3s_d  3s_v 
A_1g   1.00  1.00  1.00  1.00  1.00  1.00  1.00  1.00  1.00  1.00  1.00  1.00
A_2g   1.00  1.00  1.00  1.00 -1.00 -1.00  1.00  1.00  1.00  1.00 -1.00 -1.00
B_1g   1.00 -1.00  1.00 -1.00  1.00 -1.00  1.00 -1.00  1.00 -1.00  1.00 -1.00
B_2g   1.00 -1.00  1.00 -1.00 -1.00  1.00  1.00 -1.00  1.00 -1.00 -1.00  1.00
E_1g   2.00  1.00 -1.00 -2.00  0.00  0.00  2.00  1.00 -1.00 -2.00  0.00  0.00
E_2g   2.00 -1.00 -1.00  2.00  0.00  0.00  2.00 -1.00 -1.00  2.00  0.00  0.00
A_1u   1.00  1.00  1.00  1.00  1.00  1.00 -1.00 -1.00 -1.00 -1.00 -1.00 -1.00
A_2u   1.00  1.00  1.00  1.00 -1.00 -1.00 -1.00 -1.00 -1.00 -1.00  1.00  1.00
B_1u   1.00 -1.00  1.00 -1.00  1.00 -1.00 -1.00  1.00 -1.00  1.00 -1.00  1.00
B_2u   1.00 -1.00  1.00 -1.00 -1.00  1.00 -1.00  1.00 -1.00  1.00  1.00 -1.00
E_1u   2.00  1.00 -1.00 -2.00  0.00  0.00 -2.00 -1.00  1.00  2.00  0.00  0.00
E_2u   2.00 -1.00 -1.00  2.00  0.00  0.00 -2.00  1.00  1.00 -2.00  0.00  0.00

     the symmetry operations in each class and the name of the first element:

     E        1
          identity                                               
     2C6      5    6
           60 deg rotation - cryst. axis [0,0,1]                 
     2C3      7    8
          120 deg rotation - cryst. axis [0,0,1]                 
     C2       2
          180 deg rotation - cart. axis [0,0,1]                  
     3C2'     4   12   11
          180 deg rotation - cart. axis [1,0,0]                  
     3C2''    3    9   10
          180 deg rotation - cart. axis [0,1,0]                  
     i       13
          inversion                                              
     2S3     17   18
          inv.  60 deg rotation - cryst. axis [0,0,1]            
     2S6     19   20
          inv. 120 deg rotation - cryst. axis [0,0,1]            
     s_h     14
          inv. 180 deg rotation - cart. axis [0,0,1]             
     3s_d    16   24   23
          inv. 180 deg rotation - cart. axis [1,0,0]             
     3s_v    15   21   22
          inv. 180 deg rotation - cart. axis [0,1,0]             

   Cartesian axes

     site n.     atom                  positions (alat units)
         1           B   tau(   1) = (  -0.0000000   0.5773503   0.6650559  )
         2           B   tau(   2) = (   0.5000000   0.2886751   1.9951677  )
         3           N   tau(   3) = (  -0.0000000   0.5773503   1.9951677  )
         4           N   tau(   4) = (   0.5000000   0.2886751   0.6650559  )

   Crystallographic axes

     site n.     atom                  positions (cryst. coord.)
         1           B   tau(   1) = (  0.3333333  0.6666667  0.2500000  )
         2           B   tau(   2) = (  0.6666667  0.3333333  0.7500000  )
         3           N   tau(   3) = (  0.3333333  0.6666667  0.7500000  )
         4           N   tau(   4) = (  0.6666667  0.3333333  0.2500000  )

     number of k points=   936
                       cart. coord. in units 2pi/alat
        k(    1) = (   0.0208333   0.0360844   0.0156628), wk =   0.0011574
        k(    2) = (   0.0208333   0.0360844   0.0469885), wk =   0.0011574
        k(    3) = (   0.0208333   0.0360844   0.0783142), wk =   0.0011574
        k(    4) = (   0.0208333   0.0360844   0.1096399), wk =   0.0011574
        k(    5) = (   0.0208333   0.0360844   0.1409656), wk =   0.0011574
        k(    6) = (   0.0208333   0.0360844   0.1722913), wk =   0.0011574
        k(    7) = (   0.0208333   0.0841969   0.0156628), wk =   0.0023148
        k(    8) = (   0.0208333   0.0841969   0.0469885), wk =   0.0023148
        k(    9) = (   0.0208333   0.0841969   0.0783142), wk =   0.0023148
        k(   10) = (   0.0208333   0.0841969   0.1096399), wk =   0.0023148
        k(   11) = (   0.0208333   0.0841969   0.1409656), wk =   0.0023148
        k(   12) = (   0.0208333   0.0841969   0.1722913), wk =   0.0023148
        k(   13) = (   0.0208333   0.1323094   0.0156628), wk =   0.0023148
        k(   14) = (   0.0208333   0.1323094   0.0469885), wk =   0.0023148
        k(   15) = (   0.0208333   0.1323094   0.0783142), wk =   0.0023148
        k(   16) = (   0.0208333   0.1323094   0.1096399), wk =   0.0023148
        k(   17) = (   0.0208333   0.1323094   0.1409656), wk =   0.0023148
        k(   18) = (   0.0208333   0.1323094   0.1722913), wk =   0.0023148
        k(   19) = (   0.0208333   0.1804220   0.0156628), wk =   0.0023148
        k(   20) = (   0.0208333   0.1804220   0.0469885), wk =   0.0023148
        k(   21) = (   0.0208333   0.1804220   0.0783142), wk =   0.0023148
        k(   22) = (   0.0208333   0.1804220   0.1096399), wk =   0.0023148
        k(   23) = (   0.0208333   0.1804220   0.1409656), wk =   0.0023148
        k(   24) = (   0.0208333   0.1804220   0.1722913), wk =   0.0023148
        k(   25) = (   0.0208333   0.2285345   0.0156628), wk =   0.0023148
        k(   26) = (   0.0208333   0.2285345   0.0469885), wk =   0.0023148
        k(   27) = (   0.0208333   0.2285345   0.0783142), wk =   0.0023148
        k(   28) = (   0.0208333   0.2285345   0.1096399), wk =   0.0023148
        k(   29) = (   0.0208333   0.2285345   0.1409656), wk =   0.0023148
        k(   30) = (   0.0208333   0.2285345   0.1722913), wk =   0.0023148
        k(   31) = (   0.0208333   0.2766470   0.0156628), wk =   0.0023148
        k(   32) = (   0.0208333   0.2766470   0.0469885), wk =   0.0023148
        k(   33) = (   0.0208333   0.2766470   0.0783142), wk =   0.0023148
        k(   34) = (   0.0208333   0.2766470   0.1096399), wk =   0.0023148
        k(   35) = (   0.0208333   0.2766470   0.1409656), wk =   0.0023148
        k(   36) = (   0.0208333   0.2766470   0.1722913), wk =   0.0023148
        k(   37) = (   0.0208333   0.3247595   0.0156628), wk =   0.0023148
        k(   38) = (   0.0208333   0.3247595   0.0469885), wk =   0.0023148
        k(   39) = (   0.0208333   0.3247595   0.0783142), wk =   0.0023148
        k(   40) = (   0.0208333   0.3247595   0.1096399), wk =   0.0023148
        k(   41) = (   0.0208333   0.3247595   0.1409656), wk =   0.0023148
        k(   42) = (   0.0208333   0.3247595   0.1722913), wk =   0.0023148
        k(   43) = (   0.0208333   0.3728720   0.0156628), wk =   0.0023148
        k(   44) = (   0.0208333   0.3728720   0.0469885), wk =   0.0023148
        k(   45) = (   0.0208333   0.3728720   0.0783142), wk =   0.0023148
        k(   46) = (   0.0208333   0.3728720   0.1096399), wk =   0.0023148
        k(   47) = (   0.0208333   0.3728720   0.1409656), wk =   0.0023148
        k(   48) = (   0.0208333   0.3728720   0.1722913), wk =   0.0023148
        k(   49) = (   0.0208333   0.4209846   0.0156628), wk =   0.0023148
        k(   50) = (   0.0208333   0.4209846   0.0469885), wk =   0.0023148
        k(   51) = (   0.0208333   0.4209846   0.0783142), wk =   0.0023148
        k(   52) = (   0.0208333   0.4209846   0.1096399), wk =   0.0023148
        k(   53) = (   0.0208333   0.4209846   0.1409656), wk =   0.0023148
        k(   54) = (   0.0208333   0.4209846   0.1722913), wk =   0.0023148
        k(   55) = (   0.0208333   0.4690971   0.0156628), wk =   0.0023148
        k(   56) = (   0.0208333   0.4690971   0.0469885), wk =   0.0023148
        k(   57) = (   0.0208333   0.4690971   0.0783142), wk =   0.0023148
        k(   58) = (   0.0208333   0.4690971   0.1096399), wk =   0.0023148
        k(   59) = (   0.0208333   0.4690971   0.1409656), wk =   0.0023148
        k(   60) = (   0.0208333   0.4690971   0.1722913), wk =   0.0023148
        k(   61) = (   0.0208333   0.5172096   0.0156628), wk =   0.0023148
        k(   62) = (   0.0208333   0.5172096   0.0469885), wk =   0.0023148
        k(   63) = (   0.0208333   0.5172096   0.0783142), wk =   0.0023148
        k(   64) = (   0.0208333   0.5172096   0.1096399), wk =   0.0023148
        k(   65) = (   0.0208333   0.5172096   0.1409656), wk =   0.0023148
        k(   66) = (   0.0208333   0.5172096   0.1722913), wk =   0.0023148
        k(   67) = (   0.0208333   0.5653221   0.0156628), wk =   0.0023148
        k(   68) = (   0.0208333   0.5653221   0.0469885), wk =   0.0023148
        k(   69) = (   0.0208333   0.5653221   0.0783142), wk =   0.0023148
        k(   70) = (   0.0208333   0.5653221   0.1096399), wk =   0.0023148
        k(   71) = (   0.0208333   0.5653221   0.1409656), wk =   0.0023148
        k(   72) = (   0.0208333   0.5653221   0.1722913), wk =   0.0023148
        k(   73) = (   0.0208333  -0.5412659   0.0156628), wk =   0.0023148
        k(   74) = (   0.0208333  -0.5412659   0.0469885), wk =   0.0023148
        k(   75) = (   0.0208333  -0.5412659   0.0783142), wk =   0.0023148
        k(   76) = (   0.0208333  -0.5412659   0.1096399), wk =   0.0023148
        k(   77) = (   0.0208333  -0.5412659   0.1409656), wk =   0.0023148
        k(   78) = (   0.0208333  -0.5412659   0.1722913), wk =   0.0023148
        k(   79) = (   0.0208333  -0.4931534   0.0156628), wk =   0.0023148
        k(   80) = (   0.0208333  -0.4931534   0.0469885), wk =   0.0023148
        k(   81) = (   0.0208333  -0.4931534   0.0783142), wk =   0.0023148
        k(   82) = (   0.0208333  -0.4931534   0.1096399), wk =   0.0023148
        k(   83) = (   0.0208333  -0.4931534   0.1409656), wk =   0.0023148
        k(   84) = (   0.0208333  -0.4931534   0.1722913), wk =   0.0023148
        k(   85) = (   0.0208333  -0.4450408   0.0156628), wk =   0.0023148
        k(   86) = (   0.0208333  -0.4450408   0.0469885), wk =   0.0023148
        k(   87) = (   0.0208333  -0.4450408   0.0783142), wk =   0.0023148
        k(   88) = (   0.0208333  -0.4450408   0.1096399), wk =   0.0023148
        k(   89) = (   0.0208333  -0.4450408   0.1409656), wk =   0.0023148
        k(   90) = (   0.0208333  -0.4450408   0.1722913), wk =   0.0023148
        k(   91) = (   0.0208333  -0.3969283   0.0156628), wk =   0.0023148
        k(   92) = (   0.0208333  -0.3969283   0.0469885), wk =   0.0023148
        k(   93) = (   0.0208333  -0.3969283   0.0783142), wk =   0.0023148
        k(   94) = (   0.0208333  -0.3969283   0.1096399), wk =   0.0023148
        k(   95) = (   0.0208333  -0.3969283   0.1409656), wk =   0.0023148
        k(   96) = (   0.0208333  -0.3969283   0.1722913), wk =   0.0023148
        k(   97) = (   0.0208333  -0.3488158   0.0156628), wk =   0.0023148
        k(   98) = (   0.0208333  -0.3488158   0.0469885), wk =   0.0023148
        k(   99) = (   0.0208333  -0.3488158   0.0783142), wk =   0.0023148
        k(  100) = (   0.0208333  -0.3488158   0.1096399), wk =   0.0023148
        k(  101) = (   0.0208333  -0.3488158   0.1409656), wk =   0.0023148
        k(  102) = (   0.0208333  -0.3488158   0.1722913), wk =   0.0023148
        k(  103) = (   0.0208333  -0.3007033   0.0156628), wk =   0.0023148
        k(  104) = (   0.0208333  -0.3007033   0.0469885), wk =   0.0023148
        k(  105) = (   0.0208333  -0.3007033   0.0783142), wk =   0.0023148
        k(  106) = (   0.0208333  -0.3007033   0.1096399), wk =   0.0023148
        k(  107) = (   0.0208333  -0.3007033   0.1409656), wk =   0.0023148
        k(  108) = (   0.0208333  -0.3007033   0.1722913), wk =   0.0023148
        k(  109) = (   0.0208333  -0.2525907   0.0156628), wk =   0.0023148
        k(  110) = (   0.0208333  -0.2525907   0.0469885), wk =   0.0023148
        k(  111) = (   0.0208333  -0.2525907   0.0783142), wk =   0.0023148
        k(  112) = (   0.0208333  -0.2525907   0.1096399), wk =   0.0023148
        k(  113) = (   0.0208333  -0.2525907   0.1409656), wk =   0.0023148
        k(  114) = (   0.0208333  -0.2525907   0.1722913), wk =   0.0023148
        k(  115) = (   0.0208333  -0.2044782   0.0156628), wk =   0.0023148
        k(  116) = (   0.0208333  -0.2044782   0.0469885), wk =   0.0023148
        k(  117) = (   0.0208333  -0.2044782   0.0783142), wk =   0.0023148
        k(  118) = (   0.0208333  -0.2044782   0.1096399), wk =   0.0023148
        k(  119) = (   0.0208333  -0.2044782   0.1409656), wk =   0.0023148
        k(  120) = (   0.0208333  -0.2044782   0.1722913), wk =   0.0023148
        k(  121) = (   0.0208333  -0.1563657   0.0156628), wk =   0.0023148
        k(  122) = (   0.0208333  -0.1563657   0.0469885), wk =   0.0023148
        k(  123) = (   0.0208333  -0.1563657   0.0783142), wk =   0.0023148
        k(  124) = (   0.0208333  -0.1563657   0.1096399), wk =   0.0023148
        k(  125) = (   0.0208333  -0.1563657   0.1409656), wk =   0.0023148
        k(  126) = (   0.0208333  -0.1563657   0.1722913), wk =   0.0023148
        k(  127) = (   0.0208333  -0.1082532   0.0156628), wk =   0.0023148
        k(  128) = (   0.0208333  -0.1082532   0.0469885), wk =   0.0023148
        k(  129) = (   0.0208333  -0.1082532   0.0783142), wk =   0.0023148
        k(  130) = (   0.0208333  -0.1082532   0.1096399), wk =   0.0023148
        k(  131) = (   0.0208333  -0.1082532   0.1409656), wk =   0.0023148
        k(  132) = (   0.0208333  -0.1082532   0.1722913), wk =   0.0023148
        k(  133) = (   0.0208333  -0.0601407   0.0156628), wk =   0.0023148
        k(  134) = (   0.0208333  -0.0601407   0.0469885), wk =   0.0023148
        k(  135) = (   0.0208333  -0.0601407   0.0783142), wk =   0.0023148
        k(  136) = (   0.0208333  -0.0601407   0.1096399), wk =   0.0023148
        k(  137) = (   0.0208333  -0.0601407   0.1409656), wk =   0.0023148
        k(  138) = (   0.0208333  -0.0601407   0.1722913), wk =   0.0023148
        k(  139) = (   0.0208333  -0.0120281   0.0156628), wk =   0.0011574
        k(  140) = (   0.0208333  -0.0120281   0.0469885), wk =   0.0011574
        k(  141) = (   0.0208333  -0.0120281   0.0783142), wk =   0.0011574
        k(  142) = (   0.0208333  -0.0120281   0.1096399), wk =   0.0011574
        k(  143) = (   0.0208333  -0.0120281   0.1409656), wk =   0.0011574
        k(  144) = (   0.0208333  -0.0120281   0.1722913), wk =   0.0011574
        k(  145) = (   0.0625000   0.1082532   0.0156628), wk =   0.0011574
        k(  146) = (   0.0625000   0.1082532   0.0469885), wk =   0.0011574
        k(  147) = (   0.0625000   0.1082532   0.0783142), wk =   0.0011574
        k(  148) = (   0.0625000   0.1082532   0.1096399), wk =   0.0011574
        k(  149) = (   0.0625000   0.1082532   0.1409656), wk =   0.0011574
        k(  150) = (   0.0625000   0.1082532   0.1722913), wk =   0.0011574
        k(  151) = (   0.0625000   0.1563657   0.0156628), wk =   0.0023148
        k(  152) = (   0.0625000   0.1563657   0.0469885), wk =   0.0023148
        k(  153) = (   0.0625000   0.1563657   0.0783142), wk =   0.0023148
        k(  154) = (   0.0625000   0.1563657   0.1096399), wk =   0.0023148
        k(  155) = (   0.0625000   0.1563657   0.1409656), wk =   0.0023148
        k(  156) = (   0.0625000   0.1563657   0.1722913), wk =   0.0023148
        k(  157) = (   0.0625000   0.2044782   0.0156628), wk =   0.0023148
        k(  158) = (   0.0625000   0.2044782   0.0469885), wk =   0.0023148
        k(  159) = (   0.0625000   0.2044782   0.0783142), wk =   0.0023148
        k(  160) = (   0.0625000   0.2044782   0.1096399), wk =   0.0023148
        k(  161) = (   0.0625000   0.2044782   0.1409656), wk =   0.0023148
        k(  162) = (   0.0625000   0.2044782   0.1722913), wk =   0.0023148
        k(  163) = (   0.0625000   0.2525907   0.0156628), wk =   0.0023148
        k(  164) = (   0.0625000   0.2525907   0.0469885), wk =   0.0023148
        k(  165) = (   0.0625000   0.2525907   0.0783142), wk =   0.0023148
        k(  166) = (   0.0625000   0.2525907   0.1096399), wk =   0.0023148
        k(  167) = (   0.0625000   0.2525907   0.1409656), wk =   0.0023148
        k(  168) = (   0.0625000   0.2525907   0.1722913), wk =   0.0023148
        k(  169) = (   0.0625000   0.3007033   0.0156628), wk =   0.0023148
        k(  170) = (   0.0625000   0.3007033   0.0469885), wk =   0.0023148
        k(  171) = (   0.0625000   0.3007033   0.0783142), wk =   0.0023148
        k(  172) = (   0.0625000   0.3007033   0.1096399), wk =   0.0023148
        k(  173) = (   0.0625000   0.3007033   0.1409656), wk =   0.0023148
        k(  174) = (   0.0625000   0.3007033   0.1722913), wk =   0.0023148
        k(  175) = (   0.0625000   0.3488158   0.0156628), wk =   0.0023148
        k(  176) = (   0.0625000   0.3488158   0.0469885), wk =   0.0023148
        k(  177) = (   0.0625000   0.3488158   0.0783142), wk =   0.0023148
        k(  178) = (   0.0625000   0.3488158   0.1096399), wk =   0.0023148
        k(  179) = (   0.0625000   0.3488158   0.1409656), wk =   0.0023148
        k(  180) = (   0.0625000   0.3488158   0.1722913), wk =   0.0023148
        k(  181) = (   0.0625000   0.3969283   0.0156628), wk =   0.0023148
        k(  182) = (   0.0625000   0.3969283   0.0469885), wk =   0.0023148
        k(  183) = (   0.0625000   0.3969283   0.0783142), wk =   0.0023148
        k(  184) = (   0.0625000   0.3969283   0.1096399), wk =   0.0023148
        k(  185) = (   0.0625000   0.3969283   0.1409656), wk =   0.0023148
        k(  186) = (   0.0625000   0.3969283   0.1722913), wk =   0.0023148
        k(  187) = (   0.0625000   0.4450408   0.0156628), wk =   0.0023148
        k(  188) = (   0.0625000   0.4450408   0.0469885), wk =   0.0023148
        k(  189) = (   0.0625000   0.4450408   0.0783142), wk =   0.0023148
        k(  190) = (   0.0625000   0.4450408   0.1096399), wk =   0.0023148
        k(  191) = (   0.0625000   0.4450408   0.1409656), wk =   0.0023148
        k(  192) = (   0.0625000   0.4450408   0.1722913), wk =   0.0023148
        k(  193) = (   0.0625000   0.4931534   0.0156628), wk =   0.0023148
        k(  194) = (   0.0625000   0.4931534   0.0469885), wk =   0.0023148
        k(  195) = (   0.0625000   0.4931534   0.0783142), wk =   0.0023148
        k(  196) = (   0.0625000   0.4931534   0.1096399), wk =   0.0023148
        k(  197) = (   0.0625000   0.4931534   0.1409656), wk =   0.0023148
        k(  198) = (   0.0625000   0.4931534   0.1722913), wk =   0.0023148
        k(  199) = (   0.0625000   0.5412659   0.0156628), wk =   0.0023148
        k(  200) = (   0.0625000   0.5412659   0.0469885), wk =   0.0023148
        k(  201) = (   0.0625000   0.5412659   0.0783142), wk =   0.0023148
        k(  202) = (   0.0625000   0.5412659   0.1096399), wk =   0.0023148
        k(  203) = (   0.0625000   0.5412659   0.1409656), wk =   0.0023148
        k(  204) = (   0.0625000   0.5412659   0.1722913), wk =   0.0023148
        k(  205) = (   0.0625000   0.5893784   0.0156628), wk =   0.0023148
        k(  206) = (   0.0625000   0.5893784   0.0469885), wk =   0.0023148
        k(  207) = (   0.0625000   0.5893784   0.0783142), wk =   0.0023148
        k(  208) = (   0.0625000   0.5893784   0.1096399), wk =   0.0023148
        k(  209) = (   0.0625000   0.5893784   0.1409656), wk =   0.0023148
        k(  210) = (   0.0625000   0.5893784   0.1722913), wk =   0.0023148
        k(  211) = (   0.0625000  -0.5172096   0.0156628), wk =   0.0023148
        k(  212) = (   0.0625000  -0.5172096   0.0469885), wk =   0.0023148
        k(  213) = (   0.0625000  -0.5172096   0.0783142), wk =   0.0023148
        k(  214) = (   0.0625000  -0.5172096   0.1096399), wk =   0.0023148
        k(  215) = (   0.0625000  -0.5172096   0.1409656), wk =   0.0023148
        k(  216) = (   0.0625000  -0.5172096   0.1722913), wk =   0.0023148
        k(  217) = (   0.0625000  -0.4690971   0.0156628), wk =   0.0023148
        k(  218) = (   0.0625000  -0.4690971   0.0469885), wk =   0.0023148
        k(  219) = (   0.0625000  -0.4690971   0.0783142), wk =   0.0023148
        k(  220) = (   0.0625000  -0.4690971   0.1096399), wk =   0.0023148
        k(  221) = (   0.0625000  -0.4690971   0.1409656), wk =   0.0023148
        k(  222) = (   0.0625000  -0.4690971   0.1722913), wk =   0.0023148
        k(  223) = (   0.0625000  -0.4209846   0.0156628), wk =   0.0023148
        k(  224) = (   0.0625000  -0.4209846   0.0469885), wk =   0.0023148
        k(  225) = (   0.0625000  -0.4209846   0.0783142), wk =   0.0023148
        k(  226) = (   0.0625000  -0.4209846   0.1096399), wk =   0.0023148
        k(  227) = (   0.0625000  -0.4209846   0.1409656), wk =   0.0023148
        k(  228) = (   0.0625000  -0.4209846   0.1722913), wk =   0.0023148
        k(  229) = (   0.0625000  -0.3728720   0.0156628), wk =   0.0023148
        k(  230) = (   0.0625000  -0.3728720   0.0469885), wk =   0.0023148
        k(  231) = (   0.0625000  -0.3728720   0.0783142), wk =   0.0023148
        k(  232) = (   0.0625000  -0.3728720   0.1096399), wk =   0.0023148
        k(  233) = (   0.0625000  -0.3728720   0.1409656), wk =   0.0023148
        k(  234) = (   0.0625000  -0.3728720   0.1722913), wk =   0.0023148
        k(  235) = (   0.0625000  -0.3247595   0.0156628), wk =   0.0023148
        k(  236) = (   0.0625000  -0.3247595   0.0469885), wk =   0.0023148
        k(  237) = (   0.0625000  -0.3247595   0.0783142), wk =   0.0023148
        k(  238) = (   0.0625000  -0.3247595   0.1096399), wk =   0.0023148
        k(  239) = (   0.0625000  -0.3247595   0.1409656), wk =   0.0023148
        k(  240) = (   0.0625000  -0.3247595   0.1722913), wk =   0.0023148
        k(  241) = (   0.0625000  -0.2766470   0.0156628), wk =   0.0023148
        k(  242) = (   0.0625000  -0.2766470   0.0469885), wk =   0.0023148
        k(  243) = (   0.0625000  -0.2766470   0.0783142), wk =   0.0023148
        k(  244) = (   0.0625000  -0.2766470   0.1096399), wk =   0.0023148
        k(  245) = (   0.0625000  -0.2766470   0.1409656), wk =   0.0023148
        k(  246) = (   0.0625000  -0.2766470   0.1722913), wk =   0.0023148
        k(  247) = (   0.0625000  -0.2285345   0.0156628), wk =   0.0023148
        k(  248) = (   0.0625000  -0.2285345   0.0469885), wk =   0.0023148
        k(  249) = (   0.0625000  -0.2285345   0.0783142), wk =   0.0023148
        k(  250) = (   0.0625000  -0.2285345   0.1096399), wk =   0.0023148
        k(  251) = (   0.0625000  -0.2285345   0.1409656), wk =   0.0023148
        k(  252) = (   0.0625000  -0.2285345   0.1722913), wk =   0.0023148
        k(  253) = (   0.0625000  -0.1804220   0.0156628), wk =   0.0023148
        k(  254) = (   0.0625000  -0.1804220   0.0469885), wk =   0.0023148
        k(  255) = (   0.0625000  -0.1804220   0.0783142), wk =   0.0023148
        k(  256) = (   0.0625000  -0.1804220   0.1096399), wk =   0.0023148
        k(  257) = (   0.0625000  -0.1804220   0.1409656), wk =   0.0023148
        k(  258) = (   0.0625000  -0.1804220   0.1722913), wk =   0.0023148
        k(  259) = (   0.0625000  -0.1323094   0.0156628), wk =   0.0023148
        k(  260) = (   0.0625000  -0.1323094   0.0469885), wk =   0.0023148
        k(  261) = (   0.0625000  -0.1323094   0.0783142), wk =   0.0023148
        k(  262) = (   0.0625000  -0.1323094   0.1096399), wk =   0.0023148
        k(  263) = (   0.0625000  -0.1323094   0.1409656), wk =   0.0023148
        k(  264) = (   0.0625000  -0.1323094   0.1722913), wk =   0.0023148
        k(  265) = (   0.0625000  -0.0841969   0.0156628), wk =   0.0023148
        k(  266) = (   0.0625000  -0.0841969   0.0469885), wk =   0.0023148
        k(  267) = (   0.0625000  -0.0841969   0.0783142), wk =   0.0023148
        k(  268) = (   0.0625000  -0.0841969   0.1096399), wk =   0.0023148
        k(  269) = (   0.0625000  -0.0841969   0.1409656), wk =   0.0023148
        k(  270) = (   0.0625000  -0.0841969   0.1722913), wk =   0.0023148
        k(  271) = (   0.0625000  -0.0360844   0.0156628), wk =   0.0011574
        k(  272) = (   0.0625000  -0.0360844   0.0469885), wk =   0.0011574
        k(  273) = (   0.0625000  -0.0360844   0.0783142), wk =   0.0011574
        k(  274) = (   0.0625000  -0.0360844   0.1096399), wk =   0.0011574
        k(  275) = (   0.0625000  -0.0360844   0.1409656), wk =   0.0011574
        k(  276) = (   0.0625000  -0.0360844   0.1722913), wk =   0.0011574
        k(  277) = (   0.1041667   0.1804220   0.0156628), wk =   0.0011574
        k(  278) = (   0.1041667   0.1804220   0.0469885), wk =   0.0011574
        k(  279) = (   0.1041667   0.1804220   0.0783142), wk =   0.0011574
        k(  280) = (   0.1041667   0.1804220   0.1096399), wk =   0.0011574
        k(  281) = (   0.1041667   0.1804220   0.1409656), wk =   0.0011574
        k(  282) = (   0.1041667   0.1804220   0.1722913), wk =   0.0011574
        k(  283) = (   0.1041667   0.2285345   0.0156628), wk =   0.0023148
        k(  284) = (   0.1041667   0.2285345   0.0469885), wk =   0.0023148
        k(  285) = (   0.1041667   0.2285345   0.0783142), wk =   0.0023148
        k(  286) = (   0.1041667   0.2285345   0.1096399), wk =   0.0023148
        k(  287) = (   0.1041667   0.2285345   0.1409656), wk =   0.0023148
        k(  288) = (   0.1041667   0.2285345   0.1722913), wk =   0.0023148
        k(  289) = (   0.1041667   0.2766470   0.0156628), wk =   0.0023148
        k(  290) = (   0.1041667   0.2766470   0.0469885), wk =   0.0023148
        k(  291) = (   0.1041667   0.2766470   0.0783142), wk =   0.0023148
        k(  292) = (   0.1041667   0.2766470   0.1096399), wk =   0.0023148
        k(  293) = (   0.1041667   0.2766470   0.1409656), wk =   0.0023148
        k(  294) = (   0.1041667   0.2766470   0.1722913), wk =   0.0023148
        k(  295) = (   0.1041667   0.3247595   0.0156628), wk =   0.0023148
        k(  296) = (   0.1041667   0.3247595   0.0469885), wk =   0.0023148
        k(  297) = (   0.1041667   0.3247595   0.0783142), wk =   0.0023148
        k(  298) = (   0.1041667   0.3247595   0.1096399), wk =   0.0023148
        k(  299) = (   0.1041667   0.3247595   0.1409656), wk =   0.0023148
        k(  300) = (   0.1041667   0.3247595   0.1722913), wk =   0.0023148
        k(  301) = (   0.1041667   0.3728720   0.0156628), wk =   0.0023148
        k(  302) = (   0.1041667   0.3728720   0.0469885), wk =   0.0023148
        k(  303) = (   0.1041667   0.3728720   0.0783142), wk =   0.0023148
        k(  304) = (   0.1041667   0.3728720   0.1096399), wk =   0.0023148
        k(  305) = (   0.1041667   0.3728720   0.1409656), wk =   0.0023148
        k(  306) = (   0.1041667   0.3728720   0.1722913), wk =   0.0023148
        k(  307) = (   0.1041667   0.4209846   0.0156628), wk =   0.0023148
        k(  308) = (   0.1041667   0.4209846   0.0469885), wk =   0.0023148
        k(  309) = (   0.1041667   0.4209846   0.0783142), wk =   0.0023148
        k(  310) = (   0.1041667   0.4209846   0.1096399), wk =   0.0023148
        k(  311) = (   0.1041667   0.4209846   0.1409656), wk =   0.0023148
        k(  312) = (   0.1041667   0.4209846   0.1722913), wk =   0.0023148
        k(  313) = (   0.1041667   0.4690971   0.0156628), wk =   0.0023148
        k(  314) = (   0.1041667   0.4690971   0.0469885), wk =   0.0023148
        k(  315) = (   0.1041667   0.4690971   0.0783142), wk =   0.0023148
        k(  316) = (   0.1041667   0.4690971   0.1096399), wk =   0.0023148
        k(  317) = (   0.1041667   0.4690971   0.1409656), wk =   0.0023148
        k(  318) = (   0.1041667   0.4690971   0.1722913), wk =   0.0023148
        k(  319) = (   0.1041667   0.5172096   0.0156628), wk =   0.0023148
        k(  320) = (   0.1041667   0.5172096   0.0469885), wk =   0.0023148
        k(  321) = (   0.1041667   0.5172096   0.0783142), wk =   0.0023148
        k(  322) = (   0.1041667   0.5172096   0.1096399), wk =   0.0023148
        k(  323) = (   0.1041667   0.5172096   0.1409656), wk =   0.0023148
        k(  324) = (   0.1041667   0.5172096   0.1722913), wk =   0.0023148
        k(  325) = (   0.1041667   0.5653221   0.0156628), wk =   0.0023148
        k(  326) = (   0.1041667   0.5653221   0.0469885), wk =   0.0023148
        k(  327) = (   0.1041667   0.5653221   0.0783142), wk =   0.0023148
        k(  328) = (   0.1041667   0.5653221   0.1096399), wk =   0.0023148
        k(  329) = (   0.1041667   0.5653221   0.1409656), wk =   0.0023148
        k(  330) = (   0.1041667   0.5653221   0.1722913), wk =   0.0023148
        k(  331) = (   0.1041667   0.6134347   0.0156628), wk =   0.0023148
        k(  332) = (   0.1041667   0.6134347   0.0469885), wk =   0.0023148
        k(  333) = (   0.1041667   0.6134347   0.0783142), wk =   0.0023148
        k(  334) = (   0.1041667   0.6134347   0.1096399), wk =   0.0023148
        k(  335) = (   0.1041667   0.6134347   0.1409656), wk =   0.0023148
        k(  336) = (   0.1041667   0.6134347   0.1722913), wk =   0.0023148
        k(  337) = (   0.1041667  -0.4931534   0.0156628), wk =   0.0023148
        k(  338) = (   0.1041667  -0.4931534   0.0469885), wk =   0.0023148
        k(  339) = (   0.1041667  -0.4931534   0.0783142), wk =   0.0023148
        k(  340) = (   0.1041667  -0.4931534   0.1096399), wk =   0.0023148
        k(  341) = (   0.1041667  -0.4931534   0.1409656), wk =   0.0023148
        k(  342) = (   0.1041667  -0.4931534   0.1722913), wk =   0.0023148
        k(  343) = (   0.1041667  -0.4450408   0.0156628), wk =   0.0023148
        k(  344) = (   0.1041667  -0.4450408   0.0469885), wk =   0.0023148
        k(  345) = (   0.1041667  -0.4450408   0.0783142), wk =   0.0023148
        k(  346) = (   0.1041667  -0.4450408   0.1096399), wk =   0.0023148
        k(  347) = (   0.1041667  -0.4450408   0.1409656), wk =   0.0023148
        k(  348) = (   0.1041667  -0.4450408   0.1722913), wk =   0.0023148
        k(  349) = (   0.1041667  -0.3969283   0.0156628), wk =   0.0023148
        k(  350) = (   0.1041667  -0.3969283   0.0469885), wk =   0.0023148
        k(  351) = (   0.1041667  -0.3969283   0.0783142), wk =   0.0023148
        k(  352) = (   0.1041667  -0.3969283   0.1096399), wk =   0.0023148
        k(  353) = (   0.1041667  -0.3969283   0.1409656), wk =   0.0023148
        k(  354) = (   0.1041667  -0.3969283   0.1722913), wk =   0.0023148
        k(  355) = (   0.1041667  -0.3488158   0.0156628), wk =   0.0023148
        k(  356) = (   0.1041667  -0.3488158   0.0469885), wk =   0.0023148
        k(  357) = (   0.1041667  -0.3488158   0.0783142), wk =   0.0023148
        k(  358) = (   0.1041667  -0.3488158   0.1096399), wk =   0.0023148
        k(  359) = (   0.1041667  -0.3488158   0.1409656), wk =   0.0023148
        k(  360) = (   0.1041667  -0.3488158   0.1722913), wk =   0.0023148
        k(  361) = (   0.1041667  -0.3007033   0.0156628), wk =   0.0023148
        k(  362) = (   0.1041667  -0.3007033   0.0469885), wk =   0.0023148
        k(  363) = (   0.1041667  -0.3007033   0.0783142), wk =   0.0023148
        k(  364) = (   0.1041667  -0.3007033   0.1096399), wk =   0.0023148
        k(  365) = (   0.1041667  -0.3007033   0.1409656), wk =   0.0023148
        k(  366) = (   0.1041667  -0.3007033   0.1722913), wk =   0.0023148
        k(  367) = (   0.1041667  -0.2525907   0.0156628), wk =   0.0023148
        k(  368) = (   0.1041667  -0.2525907   0.0469885), wk =   0.0023148
        k(  369) = (   0.1041667  -0.2525907   0.0783142), wk =   0.0023148
        k(  370) = (   0.1041667  -0.2525907   0.1096399), wk =   0.0023148
        k(  371) = (   0.1041667  -0.2525907   0.1409656), wk =   0.0023148
        k(  372) = (   0.1041667  -0.2525907   0.1722913), wk =   0.0023148
        k(  373) = (   0.1041667  -0.2044782   0.0156628), wk =   0.0023148
        k(  374) = (   0.1041667  -0.2044782   0.0469885), wk =   0.0023148
        k(  375) = (   0.1041667  -0.2044782   0.0783142), wk =   0.0023148
        k(  376) = (   0.1041667  -0.2044782   0.1096399), wk =   0.0023148
        k(  377) = (   0.1041667  -0.2044782   0.1409656), wk =   0.0023148
        k(  378) = (   0.1041667  -0.2044782   0.1722913), wk =   0.0023148
        k(  379) = (   0.1041667  -0.1563657   0.0156628), wk =   0.0023148
        k(  380) = (   0.1041667  -0.1563657   0.0469885), wk =   0.0023148
        k(  381) = (   0.1041667  -0.1563657   0.0783142), wk =   0.0023148
        k(  382) = (   0.1041667  -0.1563657   0.1096399), wk =   0.0023148
        k(  383) = (   0.1041667  -0.1563657   0.1409656), wk =   0.0023148
        k(  384) = (   0.1041667  -0.1563657   0.1722913), wk =   0.0023148
        k(  385) = (   0.1041667  -0.1082532   0.0156628), wk =   0.0023148
        k(  386) = (   0.1041667  -0.1082532   0.0469885), wk =   0.0023148
        k(  387) = (   0.1041667  -0.1082532   0.0783142), wk =   0.0023148
        k(  388) = (   0.1041667  -0.1082532   0.1096399), wk =   0.0023148
        k(  389) = (   0.1041667  -0.1082532   0.1409656), wk =   0.0023148
        k(  390) = (   0.1041667  -0.1082532   0.1722913), wk =   0.0023148
        k(  391) = (   0.1041667  -0.0601407   0.0156628), wk =   0.0011574
        k(  392) = (   0.1041667  -0.0601407   0.0469885), wk =   0.0011574
        k(  393) = (   0.1041667  -0.0601407   0.0783142), wk =   0.0011574
        k(  394) = (   0.1041667  -0.0601407   0.1096399), wk =   0.0011574
        k(  395) = (   0.1041667  -0.0601407   0.1409656), wk =   0.0011574
        k(  396) = (   0.1041667  -0.0601407   0.1722913), wk =   0.0011574
        k(  397) = (   0.1458333   0.2525907   0.0156628), wk =   0.0011574
        k(  398) = (   0.1458333   0.2525907   0.0469885), wk =   0.0011574
        k(  399) = (   0.1458333   0.2525907   0.0783142), wk =   0.0011574
        k(  400) = (   0.1458333   0.2525907   0.1096399), wk =   0.0011574
        k(  401) = (   0.1458333   0.2525907   0.1409656), wk =   0.0011574
        k(  402) = (   0.1458333   0.2525907   0.1722913), wk =   0.0011574
        k(  403) = (   0.1458333   0.3007033   0.0156628), wk =   0.0023148
        k(  404) = (   0.1458333   0.3007033   0.0469885), wk =   0.0023148
        k(  405) = (   0.1458333   0.3007033   0.0783142), wk =   0.0023148
        k(  406) = (   0.1458333   0.3007033   0.1096399), wk =   0.0023148
        k(  407) = (   0.1458333   0.3007033   0.1409656), wk =   0.0023148
        k(  408) = (   0.1458333   0.3007033   0.1722913), wk =   0.0023148
        k(  409) = (   0.1458333   0.3488158   0.0156628), wk =   0.0023148
        k(  410) = (   0.1458333   0.3488158   0.0469885), wk =   0.0023148
        k(  411) = (   0.1458333   0.3488158   0.0783142), wk =   0.0023148
        k(  412) = (   0.1458333   0.3488158   0.1096399), wk =   0.0023148
        k(  413) = (   0.1458333   0.3488158   0.1409656), wk =   0.0023148
        k(  414) = (   0.1458333   0.3488158   0.1722913), wk =   0.0023148
        k(  415) = (   0.1458333   0.3969283   0.0156628), wk =   0.0023148
        k(  416) = (   0.1458333   0.3969283   0.0469885), wk =   0.0023148
        k(  417) = (   0.1458333   0.3969283   0.0783142), wk =   0.0023148
        k(  418) = (   0.1458333   0.3969283   0.1096399), wk =   0.0023148
        k(  419) = (   0.1458333   0.3969283   0.1409656), wk =   0.0023148
        k(  420) = (   0.1458333   0.3969283   0.1722913), wk =   0.0023148
        k(  421) = (   0.1458333   0.4450408   0.0156628), wk =   0.0023148
        k(  422) = (   0.1458333   0.4450408   0.0469885), wk =   0.0023148
        k(  423) = (   0.1458333   0.4450408   0.0783142), wk =   0.0023148
        k(  424) = (   0.1458333   0.4450408   0.1096399), wk =   0.0023148
        k(  425) = (   0.1458333   0.4450408   0.1409656), wk =   0.0023148
        k(  426) = (   0.1458333   0.4450408   0.1722913), wk =   0.0023148
        k(  427) = (   0.1458333   0.4931534   0.0156628), wk =   0.0023148
        k(  428) = (   0.1458333   0.4931534   0.0469885), wk =   0.0023148
        k(  429) = (   0.1458333   0.4931534   0.0783142), wk =   0.0023148
        k(  430) = (   0.1458333   0.4931534   0.1096399), wk =   0.0023148
        k(  431) = (   0.1458333   0.4931534   0.1409656), wk =   0.0023148
        k(  432) = (   0.1458333   0.4931534   0.1722913), wk =   0.0023148
        k(  433) = (   0.1458333   0.5412659   0.0156628), wk =   0.0023148
        k(  434) = (   0.1458333   0.5412659   0.0469885), wk =   0.0023148
        k(  435) = (   0.1458333   0.5412659   0.0783142), wk =   0.0023148
        k(  436) = (   0.1458333   0.5412659   0.1096399), wk =   0.0023148
        k(  437) = (   0.1458333   0.5412659   0.1409656), wk =   0.0023148
        k(  438) = (   0.1458333   0.5412659   0.1722913), wk =   0.0023148
        k(  439) = (   0.1458333   0.5893784   0.0156628), wk =   0.0023148
        k(  440) = (   0.1458333   0.5893784   0.0469885), wk =   0.0023148
        k(  441) = (   0.1458333   0.5893784   0.0783142), wk =   0.0023148
        k(  442) = (   0.1458333   0.5893784   0.1096399), wk =   0.0023148
        k(  443) = (   0.1458333   0.5893784   0.1409656), wk =   0.0023148
        k(  444) = (   0.1458333   0.5893784   0.1722913), wk =   0.0023148
        k(  445) = (   0.1458333   0.6374909   0.0156628), wk =   0.0023148
        k(  446) = (   0.1458333   0.6374909   0.0469885), wk =   0.0023148
        k(  447) = (   0.1458333   0.6374909   0.0783142), wk =   0.0023148
        k(  448) = (   0.1458333   0.6374909   0.1096399), wk =   0.0023148
        k(  449) = (   0.1458333   0.6374909   0.1409656), wk =   0.0023148
        k(  450) = (   0.1458333   0.6374909   0.1722913), wk =   0.0023148
        k(  451) = (   0.1458333  -0.4690971   0.0156628), wk =   0.0023148
        k(  452) = (   0.1458333  -0.4690971   0.0469885), wk =   0.0023148
        k(  453) = (   0.1458333  -0.4690971   0.0783142), wk =   0.0023148
        k(  454) = (   0.1458333  -0.4690971   0.1096399), wk =   0.0023148
        k(  455) = (   0.1458333  -0.4690971   0.1409656), wk =   0.0023148
        k(  456) = (   0.1458333  -0.4690971   0.1722913), wk =   0.0023148
        k(  457) = (   0.1458333  -0.4209846   0.0156628), wk =   0.0023148
        k(  458) = (   0.1458333  -0.4209846   0.0469885), wk =   0.0023148
        k(  459) = (   0.1458333  -0.4209846   0.0783142), wk =   0.0023148
        k(  460) = (   0.1458333  -0.4209846   0.1096399), wk =   0.0023148
        k(  461) = (   0.1458333  -0.4209846   0.1409656), wk =   0.0023148
        k(  462) = (   0.1458333  -0.4209846   0.1722913), wk =   0.0023148
        k(  463) = (   0.1458333  -0.3728720   0.0156628), wk =   0.0023148
        k(  464) = (   0.1458333  -0.3728720   0.0469885), wk =   0.0023148
        k(  465) = (   0.1458333  -0.3728720   0.0783142), wk =   0.0023148
        k(  466) = (   0.1458333  -0.3728720   0.1096399), wk =   0.0023148
        k(  467) = (   0.1458333  -0.3728720   0.1409656), wk =   0.0023148
        k(  468) = (   0.1458333  -0.3728720   0.1722913), wk =   0.0023148
        k(  469) = (   0.1458333  -0.3247595   0.0156628), wk =   0.0023148
        k(  470) = (   0.1458333  -0.3247595   0.0469885), wk =   0.0023148
        k(  471) = (   0.1458333  -0.3247595   0.0783142), wk =   0.0023148
        k(  472) = (   0.1458333  -0.3247595   0.1096399), wk =   0.0023148
        k(  473) = (   0.1458333  -0.3247595   0.1409656), wk =   0.0023148
        k(  474) = (   0.1458333  -0.3247595   0.1722913), wk =   0.0023148
        k(  475) = (   0.1458333  -0.2766470   0.0156628), wk =   0.0023148
        k(  476) = (   0.1458333  -0.2766470   0.0469885), wk =   0.0023148
        k(  477) = (   0.1458333  -0.2766470   0.0783142), wk =   0.0023148
        k(  478) = (   0.1458333  -0.2766470   0.1096399), wk =   0.0023148
        k(  479) = (   0.1458333  -0.2766470   0.1409656), wk =   0.0023148
        k(  480) = (   0.1458333  -0.2766470   0.1722913), wk =   0.0023148
        k(  481) = (   0.1458333  -0.2285345   0.0156628), wk =   0.0023148
        k(  482) = (   0.1458333  -0.2285345   0.0469885), wk =   0.0023148
        k(  483) = (   0.1458333  -0.2285345   0.0783142), wk =   0.0023148
        k(  484) = (   0.1458333  -0.2285345   0.1096399), wk =   0.0023148
        k(  485) = (   0.1458333  -0.2285345   0.1409656), wk =   0.0023148
        k(  486) = (   0.1458333  -0.2285345   0.1722913), wk =   0.0023148
        k(  487) = (   0.1458333  -0.1804220   0.0156628), wk =   0.0023148
        k(  488) = (   0.1458333  -0.1804220   0.0469885), wk =   0.0023148
        k(  489) = (   0.1458333  -0.1804220   0.0783142), wk =   0.0023148
        k(  490) = (   0.1458333  -0.1804220   0.1096399), wk =   0.0023148
        k(  491) = (   0.1458333  -0.1804220   0.1409656), wk =   0.0023148
        k(  492) = (   0.1458333  -0.1804220   0.1722913), wk =   0.0023148
        k(  493) = (   0.1458333  -0.1323094   0.0156628), wk =   0.0023148
        k(  494) = (   0.1458333  -0.1323094   0.0469885), wk =   0.0023148
        k(  495) = (   0.1458333  -0.1323094   0.0783142), wk =   0.0023148
        k(  496) = (   0.1458333  -0.1323094   0.1096399), wk =   0.0023148
        k(  497) = (   0.1458333  -0.1323094   0.1409656), wk =   0.0023148
        k(  498) = (   0.1458333  -0.1323094   0.1722913), wk =   0.0023148
        k(  499) = (   0.1458333  -0.0841969   0.0156628), wk =   0.0011574
        k(  500) = (   0.1458333  -0.0841969   0.0469885), wk =   0.0011574
        k(  501) = (   0.1458333  -0.0841969   0.0783142), wk =   0.0011574
        k(  502) = (   0.1458333  -0.0841969   0.1096399), wk =   0.0011574
        k(  503) = (   0.1458333  -0.0841969   0.1409656), wk =   0.0011574
        k(  504) = (   0.1458333  -0.0841969   0.1722913), wk =   0.0011574
        k(  505) = (   0.1875000   0.3247595   0.0156628), wk =   0.0011574
        k(  506) = (   0.1875000   0.3247595   0.0469885), wk =   0.0011574
        k(  507) = (   0.1875000   0.3247595   0.0783142), wk =   0.0011574
        k(  508) = (   0.1875000   0.3247595   0.1096399), wk =   0.0011574
        k(  509) = (   0.1875000   0.3247595   0.1409656), wk =   0.0011574
        k(  510) = (   0.1875000   0.3247595   0.1722913), wk =   0.0011574
        k(  511) = (   0.1875000   0.3728720   0.0156628), wk =   0.0023148
        k(  512) = (   0.1875000   0.3728720   0.0469885), wk =   0.0023148
        k(  513) = (   0.1875000   0.3728720   0.0783142), wk =   0.0023148
        k(  514) = (   0.1875000   0.3728720   0.1096399), wk =   0.0023148
        k(  515) = (   0.1875000   0.3728720   0.1409656), wk =   0.0023148
        k(  516) = (   0.1875000   0.3728720   0.1722913), wk =   0.0023148
        k(  517) = (   0.1875000   0.4209846   0.0156628), wk =   0.0023148
        k(  518) = (   0.1875000   0.4209846   0.0469885), wk =   0.0023148
        k(  519) = (   0.1875000   0.4209846   0.0783142), wk =   0.0023148
        k(  520) = (   0.1875000   0.4209846   0.1096399), wk =   0.0023148
        k(  521) = (   0.1875000   0.4209846   0.1409656), wk =   0.0023148
        k(  522) = (   0.1875000   0.4209846   0.1722913), wk =   0.0023148
        k(  523) = (   0.1875000   0.4690971   0.0156628), wk =   0.0023148
        k(  524) = (   0.1875000   0.4690971   0.0469885), wk =   0.0023148
        k(  525) = (   0.1875000   0.4690971   0.0783142), wk =   0.0023148
        k(  526) = (   0.1875000   0.4690971   0.1096399), wk =   0.0023148
        k(  527) = (   0.1875000   0.4690971   0.1409656), wk =   0.0023148
        k(  528) = (   0.1875000   0.4690971   0.1722913), wk =   0.0023148
        k(  529) = (   0.1875000   0.5172096   0.0156628), wk =   0.0023148
        k(  530) = (   0.1875000   0.5172096   0.0469885), wk =   0.0023148
        k(  531) = (   0.1875000   0.5172096   0.0783142), wk =   0.0023148
        k(  532) = (   0.1875000   0.5172096   0.1096399), wk =   0.0023148
        k(  533) = (   0.1875000   0.5172096   0.1409656), wk =   0.0023148
        k(  534) = (   0.1875000   0.5172096   0.1722913), wk =   0.0023148
        k(  535) = (   0.1875000   0.5653221   0.0156628), wk =   0.0023148
        k(  536) = (   0.1875000   0.5653221   0.0469885), wk =   0.0023148
        k(  537) = (   0.1875000   0.5653221   0.0783142), wk =   0.0023148
        k(  538) = (   0.1875000   0.5653221   0.1096399), wk =   0.0023148
        k(  539) = (   0.1875000   0.5653221   0.1409656), wk =   0.0023148
        k(  540) = (   0.1875000   0.5653221   0.1722913), wk =   0.0023148
        k(  541) = (   0.1875000   0.6134347   0.0156628), wk =   0.0023148
        k(  542) = (   0.1875000   0.6134347   0.0469885), wk =   0.0023148
        k(  543) = (   0.1875000   0.6134347   0.0783142), wk =   0.0023148
        k(  544) = (   0.1875000   0.6134347   0.1096399), wk =   0.0023148
        k(  545) = (   0.1875000   0.6134347   0.1409656), wk =   0.0023148
        k(  546) = (   0.1875000   0.6134347   0.1722913), wk =   0.0023148
        k(  547) = (   0.1875000   0.6615472   0.0156628), wk =   0.0023148
        k(  548) = (   0.1875000   0.6615472   0.0469885), wk =   0.0023148
        k(  549) = (   0.1875000   0.6615472   0.0783142), wk =   0.0023148
        k(  550) = (   0.1875000   0.6615472   0.1096399), wk =   0.0023148
        k(  551) = (   0.1875000   0.6615472   0.1409656), wk =   0.0023148
        k(  552) = (   0.1875000   0.6615472   0.1722913), wk =   0.0023148
        k(  553) = (   0.1875000  -0.4450408   0.0156628), wk =   0.0023148
        k(  554) = (   0.1875000  -0.4450408   0.0469885), wk =   0.0023148
        k(  555) = (   0.1875000  -0.4450408   0.0783142), wk =   0.0023148
        k(  556) = (   0.1875000  -0.4450408   0.1096399), wk =   0.0023148
        k(  557) = (   0.1875000  -0.4450408   0.1409656), wk =   0.0023148
        k(  558) = (   0.1875000  -0.4450408   0.1722913), wk =   0.0023148
        k(  559) = (   0.1875000  -0.3969283   0.0156628), wk =   0.0023148
        k(  560) = (   0.1875000  -0.3969283   0.0469885), wk =   0.0023148
        k(  561) = (   0.1875000  -0.3969283   0.0783142), wk =   0.0023148
        k(  562) = (   0.1875000  -0.3969283   0.1096399), wk =   0.0023148
        k(  563) = (   0.1875000  -0.3969283   0.1409656), wk =   0.0023148
        k(  564) = (   0.1875000  -0.3969283   0.1722913), wk =   0.0023148
        k(  565) = (   0.1875000  -0.3488158   0.0156628), wk =   0.0023148
        k(  566) = (   0.1875000  -0.3488158   0.0469885), wk =   0.0023148
        k(  567) = (   0.1875000  -0.3488158   0.0783142), wk =   0.0023148
        k(  568) = (   0.1875000  -0.3488158   0.1096399), wk =   0.0023148
        k(  569) = (   0.1875000  -0.3488158   0.1409656), wk =   0.0023148
        k(  570) = (   0.1875000  -0.3488158   0.1722913), wk =   0.0023148
        k(  571) = (   0.1875000  -0.3007033   0.0156628), wk =   0.0023148
        k(  572) = (   0.1875000  -0.3007033   0.0469885), wk =   0.0023148
        k(  573) = (   0.1875000  -0.3007033   0.0783142), wk =   0.0023148
        k(  574) = (   0.1875000  -0.3007033   0.1096399), wk =   0.0023148
        k(  575) = (   0.1875000  -0.3007033   0.1409656), wk =   0.0023148
        k(  576) = (   0.1875000  -0.3007033   0.1722913), wk =   0.0023148
        k(  577) = (   0.1875000  -0.2525907   0.0156628), wk =   0.0023148
        k(  578) = (   0.1875000  -0.2525907   0.0469885), wk =   0.0023148
        k(  579) = (   0.1875000  -0.2525907   0.0783142), wk =   0.0023148
        k(  580) = (   0.1875000  -0.2525907   0.1096399), wk =   0.0023148
        k(  581) = (   0.1875000  -0.2525907   0.1409656), wk =   0.0023148
        k(  582) = (   0.1875000  -0.2525907   0.1722913), wk =   0.0023148
        k(  583) = (   0.1875000  -0.2044782   0.0156628), wk =   0.0023148
        k(  584) = (   0.1875000  -0.2044782   0.0469885), wk =   0.0023148
        k(  585) = (   0.1875000  -0.2044782   0.0783142), wk =   0.0023148
        k(  586) = (   0.1875000  -0.2044782   0.1096399), wk =   0.0023148
        k(  587) = (   0.1875000  -0.2044782   0.1409656), wk =   0.0023148
        k(  588) = (   0.1875000  -0.2044782   0.1722913), wk =   0.0023148
        k(  589) = (   0.1875000  -0.1563657   0.0156628), wk =   0.0023148
        k(  590) = (   0.1875000  -0.1563657   0.0469885), wk =   0.0023148
        k(  591) = (   0.1875000  -0.1563657   0.0783142), wk =   0.0023148
        k(  592) = (   0.1875000  -0.1563657   0.1096399), wk =   0.0023148
        k(  593) = (   0.1875000  -0.1563657   0.1409656), wk =   0.0023148
        k(  594) = (   0.1875000  -0.1563657   0.1722913), wk =   0.0023148
        k(  595) = (   0.1875000  -0.1082532   0.0156628), wk =   0.0011574
        k(  596) = (   0.1875000  -0.1082532   0.0469885), wk =   0.0011574
        k(  597) = (   0.1875000  -0.1082532   0.0783142), wk =   0.0011574
        k(  598) = (   0.1875000  -0.1082532   0.1096399), wk =   0.0011574
        k(  599) = (   0.1875000  -0.1082532   0.1409656), wk =   0.0011574
        k(  600) = (   0.1875000  -0.1082532   0.1722913), wk =   0.0011574
        k(  601) = (   0.2291667   0.3969283   0.0156628), wk =   0.0011574
        k(  602) = (   0.2291667   0.3969283   0.0469885), wk =   0.0011574
        k(  603) = (   0.2291667   0.3969283   0.0783142), wk =   0.0011574
        k(  604) = (   0.2291667   0.3969283   0.1096399), wk =   0.0011574
        k(  605) = (   0.2291667   0.3969283   0.1409656), wk =   0.0011574
        k(  606) = (   0.2291667   0.3969283   0.1722913), wk =   0.0011574
        k(  607) = (   0.2291667   0.4450408   0.0156628), wk =   0.0023148
        k(  608) = (   0.2291667   0.4450408   0.0469885), wk =   0.0023148
        k(  609) = (   0.2291667   0.4450408   0.0783142), wk =   0.0023148
        k(  610) = (   0.2291667   0.4450408   0.1096399), wk =   0.0023148
        k(  611) = (   0.2291667   0.4450408   0.1409656), wk =   0.0023148
        k(  612) = (   0.2291667   0.4450408   0.1722913), wk =   0.0023148
        k(  613) = (   0.2291667   0.4931534   0.0156628), wk =   0.0023148
        k(  614) = (   0.2291667   0.4931534   0.0469885), wk =   0.0023148
        k(  615) = (   0.2291667   0.4931534   0.0783142), wk =   0.0023148
        k(  616) = (   0.2291667   0.4931534   0.1096399), wk =   0.0023148
        k(  617) = (   0.2291667   0.4931534   0.1409656), wk =   0.0023148
        k(  618) = (   0.2291667   0.4931534   0.1722913), wk =   0.0023148
        k(  619) = (   0.2291667   0.5412659   0.0156628), wk =   0.0023148
        k(  620) = (   0.2291667   0.5412659   0.0469885), wk =   0.0023148
        k(  621) = (   0.2291667   0.5412659   0.0783142), wk =   0.0023148
        k(  622) = (   0.2291667   0.5412659   0.1096399), wk =   0.0023148
        k(  623) = (   0.2291667   0.5412659   0.1409656), wk =   0.0023148
        k(  624) = (   0.2291667   0.5412659   0.1722913), wk =   0.0023148
        k(  625) = (   0.2291667   0.5893784   0.0156628), wk =   0.0023148
        k(  626) = (   0.2291667   0.5893784   0.0469885), wk =   0.0023148
        k(  627) = (   0.2291667   0.5893784   0.0783142), wk =   0.0023148
        k(  628) = (   0.2291667   0.5893784   0.1096399), wk =   0.0023148
        k(  629) = (   0.2291667   0.5893784   0.1409656), wk =   0.0023148
        k(  630) = (   0.2291667   0.5893784   0.1722913), wk =   0.0023148
        k(  631) = (   0.2291667   0.6374909   0.0156628), wk =   0.0023148
        k(  632) = (   0.2291667   0.6374909   0.0469885), wk =   0.0023148
        k(  633) = (   0.2291667   0.6374909   0.0783142), wk =   0.0023148
        k(  634) = (   0.2291667   0.6374909   0.1096399), wk =   0.0023148
        k(  635) = (   0.2291667   0.6374909   0.1409656), wk =   0.0023148
        k(  636) = (   0.2291667   0.6374909   0.1722913), wk =   0.0023148
        k(  637) = (   0.2291667   0.6856034   0.0156628), wk =   0.0023148
        k(  638) = (   0.2291667   0.6856034   0.0469885), wk =   0.0023148
        k(  639) = (   0.2291667   0.6856034   0.0783142), wk =   0.0023148
        k(  640) = (   0.2291667   0.6856034   0.1096399), wk =   0.0023148
        k(  641) = (   0.2291667   0.6856034   0.1409656), wk =   0.0023148
        k(  642) = (   0.2291667   0.6856034   0.1722913), wk =   0.0023148
        k(  643) = (   0.2291667  -0.4209846   0.0156628), wk =   0.0023148
        k(  644) = (   0.2291667  -0.4209846   0.0469885), wk =   0.0023148
        k(  645) = (   0.2291667  -0.4209846   0.0783142), wk =   0.0023148
        k(  646) = (   0.2291667  -0.4209846   0.1096399), wk =   0.0023148
        k(  647) = (   0.2291667  -0.4209846   0.1409656), wk =   0.0023148
        k(  648) = (   0.2291667  -0.4209846   0.1722913), wk =   0.0023148
        k(  649) = (   0.2291667  -0.3728720   0.0156628), wk =   0.0023148
        k(  650) = (   0.2291667  -0.3728720   0.0469885), wk =   0.0023148
        k(  651) = (   0.2291667  -0.3728720   0.0783142), wk =   0.0023148
        k(  652) = (   0.2291667  -0.3728720   0.1096399), wk =   0.0023148
        k(  653) = (   0.2291667  -0.3728720   0.1409656), wk =   0.0023148
        k(  654) = (   0.2291667  -0.3728720   0.1722913), wk =   0.0023148
        k(  655) = (   0.2291667  -0.3247595   0.0156628), wk =   0.0023148
        k(  656) = (   0.2291667  -0.3247595   0.0469885), wk =   0.0023148
        k(  657) = (   0.2291667  -0.3247595   0.0783142), wk =   0.0023148
        k(  658) = (   0.2291667  -0.3247595   0.1096399), wk =   0.0023148
        k(  659) = (   0.2291667  -0.3247595   0.1409656), wk =   0.0023148
        k(  660) = (   0.2291667  -0.3247595   0.1722913), wk =   0.0023148
        k(  661) = (   0.2291667  -0.2766470   0.0156628), wk =   0.0023148
        k(  662) = (   0.2291667  -0.2766470   0.0469885), wk =   0.0023148
        k(  663) = (   0.2291667  -0.2766470   0.0783142), wk =   0.0023148
        k(  664) = (   0.2291667  -0.2766470   0.1096399), wk =   0.0023148
        k(  665) = (   0.2291667  -0.2766470   0.1409656), wk =   0.0023148
        k(  666) = (   0.2291667  -0.2766470   0.1722913), wk =   0.0023148
        k(  667) = (   0.2291667  -0.2285345   0.0156628), wk =   0.0023148
        k(  668) = (   0.2291667  -0.2285345   0.0469885), wk =   0.0023148
        k(  669) = (   0.2291667  -0.2285345   0.0783142), wk =   0.0023148
        k(  670) = (   0.2291667  -0.2285345   0.1096399), wk =   0.0023148
        k(  671) = (   0.2291667  -0.2285345   0.1409656), wk =   0.0023148
        k(  672) = (   0.2291667  -0.2285345   0.1722913), wk =   0.0023148
        k(  673) = (   0.2291667  -0.1804220   0.0156628), wk =   0.0023148
        k(  674) = (   0.2291667  -0.1804220   0.0469885), wk =   0.0023148
        k(  675) = (   0.2291667  -0.1804220   0.0783142), wk =   0.0023148
        k(  676) = (   0.2291667  -0.1804220   0.1096399), wk =   0.0023148
        k(  677) = (   0.2291667  -0.1804220   0.1409656), wk =   0.0023148
        k(  678) = (   0.2291667  -0.1804220   0.1722913), wk =   0.0023148
        k(  679) = (   0.2291667  -0.1323094   0.0156628), wk =   0.0011574
        k(  680) = (   0.2291667  -0.1323094   0.0469885), wk =   0.0011574
        k(  681) = (   0.2291667  -0.1323094   0.0783142), wk =   0.0011574
        k(  682) = (   0.2291667  -0.1323094   0.1096399), wk =   0.0011574
        k(  683) = (   0.2291667  -0.1323094   0.1409656), wk =   0.0011574
        k(  684) = (   0.2291667  -0.1323094   0.1722913), wk =   0.0011574
        k(  685) = (   0.2708333   0.4690971   0.0156628), wk =   0.0011574
        k(  686) = (   0.2708333   0.4690971   0.0469885), wk =   0.0011574
        k(  687) = (   0.2708333   0.4690971   0.0783142), wk =   0.0011574
        k(  688) = (   0.2708333   0.4690971   0.1096399), wk =   0.0011574
        k(  689) = (   0.2708333   0.4690971   0.1409656), wk =   0.0011574
        k(  690) = (   0.2708333   0.4690971   0.1722913), wk =   0.0011574
        k(  691) = (   0.2708333   0.5172096   0.0156628), wk =   0.0023148
        k(  692) = (   0.2708333   0.5172096   0.0469885), wk =   0.0023148
        k(  693) = (   0.2708333   0.5172096   0.0783142), wk =   0.0023148
        k(  694) = (   0.2708333   0.5172096   0.1096399), wk =   0.0023148
        k(  695) = (   0.2708333   0.5172096   0.1409656), wk =   0.0023148
        k(  696) = (   0.2708333   0.5172096   0.1722913), wk =   0.0023148
        k(  697) = (   0.2708333   0.5653221   0.0156628), wk =   0.0023148
        k(  698) = (   0.2708333   0.5653221   0.0469885), wk =   0.0023148
        k(  699) = (   0.2708333   0.5653221   0.0783142), wk =   0.0023148
        k(  700) = (   0.2708333   0.5653221   0.1096399), wk =   0.0023148
        k(  701) = (   0.2708333   0.5653221   0.1409656), wk =   0.0023148
        k(  702) = (   0.2708333   0.5653221   0.1722913), wk =   0.0023148
        k(  703) = (   0.2708333   0.6134347   0.0156628), wk =   0.0023148
        k(  704) = (   0.2708333   0.6134347   0.0469885), wk =   0.0023148
        k(  705) = (   0.2708333   0.6134347   0.0783142), wk =   0.0023148
        k(  706) = (   0.2708333   0.6134347   0.1096399), wk =   0.0023148
        k(  707) = (   0.2708333   0.6134347   0.1409656), wk =   0.0023148
        k(  708) = (   0.2708333   0.6134347   0.1722913), wk =   0.0023148
        k(  709) = (   0.2708333   0.6615472   0.0156628), wk =   0.0023148
        k(  710) = (   0.2708333   0.6615472   0.0469885), wk =   0.0023148
        k(  711) = (   0.2708333   0.6615472   0.0783142), wk =   0.0023148
        k(  712) = (   0.2708333   0.6615472   0.1096399), wk =   0.0023148
        k(  713) = (   0.2708333   0.6615472   0.1409656), wk =   0.0023148
        k(  714) = (   0.2708333   0.6615472   0.1722913), wk =   0.0023148
        k(  715) = (   0.2708333   0.7096597   0.0156628), wk =   0.0023148
        k(  716) = (   0.2708333   0.7096597   0.0469885), wk =   0.0023148
        k(  717) = (   0.2708333   0.7096597   0.0783142), wk =   0.0023148
        k(  718) = (   0.2708333   0.7096597   0.1096399), wk =   0.0023148
        k(  719) = (   0.2708333   0.7096597   0.1409656), wk =   0.0023148
        k(  720) = (   0.2708333   0.7096597   0.1722913), wk =   0.0023148
        k(  721) = (   0.2708333  -0.3969283   0.0156628), wk =   0.0023148
        k(  722) = (   0.2708333  -0.3969283   0.0469885), wk =   0.0023148
        k(  723) = (   0.2708333  -0.3969283   0.0783142), wk =   0.0023148
        k(  724) = (   0.2708333  -0.3969283   0.1096399), wk =   0.0023148
        k(  725) = (   0.2708333  -0.3969283   0.1409656), wk =   0.0023148
        k(  726) = (   0.2708333  -0.3969283   0.1722913), wk =   0.0023148
        k(  727) = (   0.2708333  -0.3488158   0.0156628), wk =   0.0023148
        k(  728) = (   0.2708333  -0.3488158   0.0469885), wk =   0.0023148
        k(  729) = (   0.2708333  -0.3488158   0.0783142), wk =   0.0023148
        k(  730) = (   0.2708333  -0.3488158   0.1096399), wk =   0.0023148
        k(  731) = (   0.2708333  -0.3488158   0.1409656), wk =   0.0023148
        k(  732) = (   0.2708333  -0.3488158   0.1722913), wk =   0.0023148
        k(  733) = (   0.2708333  -0.3007033   0.0156628), wk =   0.0023148
        k(  734) = (   0.2708333  -0.3007033   0.0469885), wk =   0.0023148
        k(  735) = (   0.2708333  -0.3007033   0.0783142), wk =   0.0023148
        k(  736) = (   0.2708333  -0.3007033   0.1096399), wk =   0.0023148
        k(  737) = (   0.2708333  -0.3007033   0.1409656), wk =   0.0023148
        k(  738) = (   0.2708333  -0.3007033   0.1722913), wk =   0.0023148
        k(  739) = (   0.2708333  -0.2525907   0.0156628), wk =   0.0023148
        k(  740) = (   0.2708333  -0.2525907   0.0469885), wk =   0.0023148
        k(  741) = (   0.2708333  -0.2525907   0.0783142), wk =   0.0023148
        k(  742) = (   0.2708333  -0.2525907   0.1096399), wk =   0.0023148
        k(  743) = (   0.2708333  -0.2525907   0.1409656), wk =   0.0023148
        k(  744) = (   0.2708333  -0.2525907   0.1722913), wk =   0.0023148
        k(  745) = (   0.2708333  -0.2044782   0.0156628), wk =   0.0023148
        k(  746) = (   0.2708333  -0.2044782   0.0469885), wk =   0.0023148
        k(  747) = (   0.2708333  -0.2044782   0.0783142), wk =   0.0023148
        k(  748) = (   0.2708333  -0.2044782   0.1096399), wk =   0.0023148
        k(  749) = (   0.2708333  -0.2044782   0.1409656), wk =   0.0023148
        k(  750) = (   0.2708333  -0.2044782   0.1722913), wk =   0.0023148
        k(  751) = (   0.2708333  -0.1563657   0.0156628), wk =   0.0011574
        k(  752) = (   0.2708333  -0.1563657   0.0469885), wk =   0.0011574
        k(  753) = (   0.2708333  -0.1563657   0.0783142), wk =   0.0011574
        k(  754) = (   0.2708333  -0.1563657   0.1096399), wk =   0.0011574
        k(  755) = (   0.2708333  -0.1563657   0.1409656), wk =   0.0011574
        k(  756) = (   0.2708333  -0.1563657   0.1722913), wk =   0.0011574
        k(  757) = (   0.3125000   0.5412659   0.0156628), wk =   0.0011574
        k(  758) = (   0.3125000   0.5412659   0.0469885), wk =   0.0011574
        k(  759) = (   0.3125000   0.5412659   0.0783142), wk =   0.0011574
        k(  760) = (   0.3125000   0.5412659   0.1096399), wk =   0.0011574
        k(  761) = (   0.3125000   0.5412659   0.1409656), wk =   0.0011574
        k(  762) = (   0.3125000   0.5412659   0.1722913), wk =   0.0011574
        k(  763) = (   0.3125000   0.5893784   0.0156628), wk =   0.0023148
        k(  764) = (   0.3125000   0.5893784   0.0469885), wk =   0.0023148
        k(  765) = (   0.3125000   0.5893784   0.0783142), wk =   0.0023148
        k(  766) = (   0.3125000   0.5893784   0.1096399), wk =   0.0023148
        k(  767) = (   0.3125000   0.5893784   0.1409656), wk =   0.0023148
        k(  768) = (   0.3125000   0.5893784   0.1722913), wk =   0.0023148
        k(  769) = (   0.3125000   0.6374909   0.0156628), wk =   0.0023148
        k(  770) = (   0.3125000   0.6374909   0.0469885), wk =   0.0023148
        k(  771) = (   0.3125000   0.6374909   0.0783142), wk =   0.0023148
        k(  772) = (   0.3125000   0.6374909   0.1096399), wk =   0.0023148
        k(  773) = (   0.3125000   0.6374909   0.1409656), wk =   0.0023148
        k(  774) = (   0.3125000   0.6374909   0.1722913), wk =   0.0023148
        k(  775) = (   0.3125000   0.6856034   0.0156628), wk =   0.0023148
        k(  776) = (   0.3125000   0.6856034   0.0469885), wk =   0.0023148
        k(  777) = (   0.3125000   0.6856034   0.0783142), wk =   0.0023148
        k(  778) = (   0.3125000   0.6856034   0.1096399), wk =   0.0023148
        k(  779) = (   0.3125000   0.6856034   0.1409656), wk =   0.0023148
        k(  780) = (   0.3125000   0.6856034   0.1722913), wk =   0.0023148
        k(  781) = (   0.3125000   0.7337160   0.0156628), wk =   0.0023148
        k(  782) = (   0.3125000   0.7337160   0.0469885), wk =   0.0023148
        k(  783) = (   0.3125000   0.7337160   0.0783142), wk =   0.0023148
        k(  784) = (   0.3125000   0.7337160   0.1096399), wk =   0.0023148
        k(  785) = (   0.3125000   0.7337160   0.1409656), wk =   0.0023148
        k(  786) = (   0.3125000   0.7337160   0.1722913), wk =   0.0023148
        k(  787) = (   0.3125000  -0.3728720   0.0156628), wk =   0.0023148
        k(  788) = (   0.3125000  -0.3728720   0.0469885), wk =   0.0023148
        k(  789) = (   0.3125000  -0.3728720   0.0783142), wk =   0.0023148
        k(  790) = (   0.3125000  -0.3728720   0.1096399), wk =   0.0023148
        k(  791) = (   0.3125000  -0.3728720   0.1409656), wk =   0.0023148
        k(  792) = (   0.3125000  -0.3728720   0.1722913), wk =   0.0023148
        k(  793) = (   0.3125000  -0.3247595   0.0156628), wk =   0.0023148
        k(  794) = (   0.3125000  -0.3247595   0.0469885), wk =   0.0023148
        k(  795) = (   0.3125000  -0.3247595   0.0783142), wk =   0.0023148
        k(  796) = (   0.3125000  -0.3247595   0.1096399), wk =   0.0023148
        k(  797) = (   0.3125000  -0.3247595   0.1409656), wk =   0.0023148
        k(  798) = (   0.3125000  -0.3247595   0.1722913), wk =   0.0023148
        k(  799) = (   0.3125000  -0.2766470   0.0156628), wk =   0.0023148
        k(  800) = (   0.3125000  -0.2766470   0.0469885), wk =   0.0023148
        k(  801) = (   0.3125000  -0.2766470   0.0783142), wk =   0.0023148
        k(  802) = (   0.3125000  -0.2766470   0.1096399), wk =   0.0023148
        k(  803) = (   0.3125000  -0.2766470   0.1409656), wk =   0.0023148
        k(  804) = (   0.3125000  -0.2766470   0.1722913), wk =   0.0023148
        k(  805) = (   0.3125000  -0.2285345   0.0156628), wk =   0.0023148
        k(  806) = (   0.3125000  -0.2285345   0.0469885), wk =   0.0023148
        k(  807) = (   0.3125000  -0.2285345   0.0783142), wk =   0.0023148
        k(  808) = (   0.3125000  -0.2285345   0.1096399), wk =   0.0023148
        k(  809) = (   0.3125000  -0.2285345   0.1409656), wk =   0.0023148
        k(  810) = (   0.3125000  -0.2285345   0.1722913), wk =   0.0023148
        k(  811) = (   0.3125000  -0.1804220   0.0156628), wk =   0.0011574
        k(  812) = (   0.3125000  -0.1804220   0.0469885), wk =   0.0011574
        k(  813) = (   0.3125000  -0.1804220   0.0783142), wk =   0.0011574
[...]

          k = 0.4375 0.8059 0.0157 (  2411 PWs)   bands (ev):

    -9.8865  -9.8088  -4.3522  -4.2842  -0.1548  -0.0870   2.9850   4.0043
     8.6040   9.8924  14.3016  14.8887  16.7227  18.0910  18.4479  22.6968

     occupation numbers 
     1.0000   1.0000   1.0000   1.0000   1.0000   1.0000   1.0000   1.0000
     0.0000   0.0000   0.0000   0.0000   0.0000   0.0000   0.0000   0.0000

          k = 0.4375 0.8059 0.0470 (  2410 PWs)   bands (ev):

    -9.8838  -9.8114  -4.3507  -4.2873  -0.1527  -0.0894   3.0214   3.9738
     8.6184   9.8182  14.3615  14.8916  16.7920  17.9139  18.7245  22.5885

     occupation numbers 
     1.0000   1.0000   1.0000   1.0000   1.0000   1.0000   1.0000   1.0000
     0.0000   0.0000   0.0000   0.0000   0.0000   0.0000   0.0000   0.0000

          k = 0.4375 0.8059 0.0783 (  2416 PWs)   bands (ev):

    -9.8787  -9.8165  -4.3477  -4.2933  -0.1485  -0.0941   3.0917   3.9132
     8.6533   9.6825  14.4656  14.8953  16.9144  17.7621  19.0723  22.3561

     occupation numbers 
     1.0000   1.0000   1.0000   1.0000   1.0000   1.0000   1.0000   1.0000
     0.0000   0.0000   0.0000   0.0000   0.0000   0.0000   0.0000   0.0000

          k = 0.4375 0.8059 0.1096 (  2414 PWs)   bands (ev):

    -9.8714  -9.8237  -4.3431  -4.3013  -0.1425  -0.1007   3.1910   3.8247
     8.7172   9.5062  14.5888  14.8950  17.0643  17.6467  19.4720  21.9755

     occupation numbers 
     1.0000   1.0000   1.0000   1.0000   1.0000   1.0000   1.0000   1.0000
     0.0000   0.0000   0.0000   0.0000   0.0000   0.0000   0.0000   0.0000

          k = 0.4375 0.8059 0.1410 (  2415 PWs)   bands (ev):

    -9.8625  -9.8325  -4.3368  -4.3105  -0.1351  -0.1088   3.3122   3.7123
     8.8167   9.3124  14.7047  14.8839  17.2159  17.5540  19.9196  21.4775

     occupation numbers 
     1.0000   1.0000   1.0000   1.0000   1.0000   1.0000   1.0000   1.0000
     0.0000   0.0000   0.0000   0.0000   0.0000   0.0000   0.0000   0.0000

          k = 0.4375 0.8059 0.1723 (  2415 PWs)   bands (ev):

    -9.8526  -9.8423  -4.3289  -4.3200  -0.1265  -0.1176   3.4462   3.5830
     8.9535   9.1225  14.7949  14.8533  17.3509  17.4616  20.4114  20.9386

     occupation numbers 
     1.0000   1.0000   1.0000   1.0000   1.0000   1.0000   1.0000   1.0000
     0.0000   0.0000   0.0000   0.0000   0.0000   0.0000   0.0000   0.0000

          k = 0.4375-0.3007 0.0157 (  2414 PWs)   bands (ev):

   -10.0250  -9.9247  -4.2933  -4.2221   0.1545   0.2192   2.7433   3.8849
     8.7106  10.0527  13.8594  14.4846  16.4541  18.2577  19.0209  22.7788

     occupation numbers 
     1.0000   1.0000   1.0000   1.0000   1.0000   1.0000   1.0000   1.0000
     0.0000   0.0000   0.0000   0.0000   0.0000   0.0000   0.0000   0.0000

          k = 0.4375-0.3007 0.0470 (  2416 PWs)   bands (ev):

   -10.0216  -9.9281  -4.2918  -4.2254   0.1567   0.2169   2.7823   3.8480
     8.7273   9.9760  13.9244  14.4875  16.5257  18.1560  19.2005  22.6340

     occupation numbers 
     1.0000   1.0000   1.0000   1.0000   1.0000   1.0000   1.0000   1.0000
     0.0000   0.0000   0.0000   0.0000   0.0000   0.0000   0.0000   0.0000

          k = 0.4375-0.3007 0.0783 (  2422 PWs)   bands (ev):

   -10.0151  -9.9347  -4.2886  -4.2315   0.1609   0.2125   2.8579   3.7756
     8.7665   9.8364  14.0365  14.4907  16.6608  18.0205  19.4821  22.3519

     occupation numbers 
     1.0000   1.0000   1.0000   1.0000   1.0000   1.0000   1.0000   1.0000
     0.0000   0.0000   0.0000   0.0000   0.0000   0.0000   0.0000   0.0000

          k = 0.4375-0.3007 0.1096 (  2414 PWs)   bands (ev):

   -10.0057  -9.9440  -4.2837  -4.2398   0.1668   0.2064   2.9651   3.6719
     8.8363   9.6553  14.1673  14.4895  16.8460  17.8741  19.8233  21.9627

     occupation numbers 
     1.0000   1.0000   1.0000   1.0000   1.0000   1.0000   1.0000   1.0000
     0.0000   0.0000   0.0000   0.0000   0.0000   0.0000   0.0000   0.0000

          k = 0.4375-0.3007 0.1410 (  2418 PWs)   bands (ev):

    -9.9942  -9.9555  -4.2770  -4.2495   0.1741   0.1989   3.0968   3.5424
     8.9425   9.4564  14.2888  14.4768  17.0646  17.7095  20.2061  21.5173

     occupation numbers 
     1.0000   1.0000   1.0000   1.0000   1.0000   1.0000   1.0000   1.0000
     0.0000   0.0000   0.0000   0.0000   0.0000   0.0000   0.0000   0.0000

          k = 0.4375-0.3007 0.1723 (  2410 PWs)   bands (ev):

    -9.9814  -9.9682  -4.2688  -4.2593   0.1822   0.1908   3.2441   3.3964
     9.0859   9.2611  14.3829  14.4441  17.2957  17.5162  20.6211  21.0617

     occupation numbers 
     1.0000   1.0000   1.0000   1.0000   1.0000   1.0000   1.0000   1.0000
     0.0000   0.0000   0.0000   0.0000   0.0000   0.0000   0.0000   0.0000

          k = 0.4375-0.2526 0.0157 (  2407 PWs)   bands (ev):

   -10.1756 -10.0500  -4.1259  -4.0485   0.2989   0.3618   2.4837   3.7525
     8.9493  10.2714  13.5998  14.3601  16.2086  18.5670  19.2413  22.8682

     occupation numbers 
     1.0000   1.0000   1.0000   1.0000   1.0000   1.0000   1.0000   1.0000
     0.0000   0.0000   0.0000   0.0000   0.0000   0.0000   0.0000   0.0000

          k = 0.4375-0.2526 0.0470 (  2416 PWs)   bands (ev):

   -10.1714 -10.0544  -4.1241  -4.0520   0.3007   0.3596   2.5254   3.7088
     8.9663  10.1957  13.6790  14.3624  16.2734  18.4152  19.4469  22.7178

     occupation numbers 
     1.0000   1.0000   1.0000   1.0000   1.0000   1.0000   1.0000   1.0000
     0.0000   0.0000   0.0000   0.0000   0.0000   0.0000   0.0000   0.0000

          k = 0.4375-0.2526 0.0783 (  2423 PWs)   bands (ev):

   -10.1634 -10.0628  -4.1205  -4.0585   0.3048   0.3553   2.6064   3.6241
     9.0059  10.0584  13.8152  14.3644  16.4019  18.2123  19.7445  22.4364

     occupation numbers 
     1.0000   1.0000   1.0000   1.0000   1.0000   1.0000   1.0000   1.0000
     0.0000   0.0000   0.0000   0.0000   0.0000   0.0000   0.0000   0.0000

          k = 0.4375-0.2526 0.1096 (  2422 PWs)   bands (ev):

   -10.1517 -10.0747  -4.1150  -4.0673   0.3105   0.3494   2.7218   3.5041
     9.0759   9.8812  13.9733  14.3610  16.5923  17.9821  20.0885  22.0677

     occupation numbers 
     1.0000   1.0000   1.0000   1.0000   1.0000   1.0000   1.0000   1.0000
     0.0000   0.0000   0.0000   0.0000   0.0000   0.0000   0.0000   0.0000

          k = 0.4375-0.2526 0.1410 (  2421 PWs)   bands (ev):

   -10.1374 -10.0891  -4.1076  -4.0776   0.3177   0.3421   2.8645   3.3571
     9.1817   9.6867  14.1192  14.3443  16.8390  17.7208  20.4608  21.6619

     occupation numbers 
     1.0000   1.0000   1.0000   1.0000   1.0000   1.0000   1.0000   1.0000
     0.0000   0.0000   0.0000   0.0000   0.0000   0.0000   0.0000   0.0000

          k = 0.4375-0.2526 0.1723 (  2424 PWs)   bands (ev):

   -10.1216 -10.1051  -4.0986  -4.0883   0.3257   0.3341   3.0253   3.1934
     9.3234   9.4955  14.2314  14.3045  17.1267  17.4299  20.8506  21.2522

     occupation numbers 
     1.0000   1.0000   1.0000   1.0000   1.0000   1.0000   1.0000   1.0000
     0.0000   0.0000   0.0000   0.0000   0.0000   0.0000   0.0000   0.0000

          k = 0.4792 0.8299 0.0157 (  2416 PWs)   bands (ev):

    -9.9073  -9.8372  -4.4464  -4.3831   0.1186   0.1835   2.9555   3.9668
     8.4976   9.8746  13.9825  14.4677  16.7118  17.8779  19.0070  22.7351

     occupation numbers 
     1.0000   1.0000   1.0000   1.0000   1.0000   1.0000   1.0000   1.0000
     0.0000   0.0000   0.0000   0.0000   0.0000   0.0000   0.0000   0.0000

          k = 0.4792 0.8299 0.0470 (  2417 PWs)   bands (ev):

    -9.9049  -9.8396  -4.4451  -4.3861   0.1207   0.1811   2.9917   3.9366
     8.5141   9.7955  14.0325  14.4711  16.7993  17.8332  19.1384  22.5896

     occupation numbers 
     1.0000   1.0000   1.0000   1.0000   1.0000   1.0000   1.0000   1.0000
     0.0000   0.0000   0.0000   0.0000   0.0000   0.0000   0.0000   0.0000

          k = 0.4792 0.8299 0.0783 (  2418 PWs)   bands (ev):

    -9.9002  -9.8441  -4.4425  -4.3918   0.1249   0.1767   3.0615   3.8767
     8.5530   9.6511  14.1193  14.4755  16.9543  17.7720  19.3706  22.3012

     occupation numbers 
     1.0000   1.0000   1.0000   1.0000   1.0000   1.0000   1.0000   1.0000
     0.0000   0.0000   0.0000   0.0000   0.0000   0.0000   0.0000   0.0000

          k = 0.4792 0.8299 0.1096 (  2418 PWs)   bands (ev):

    -9.8936  -9.8506  -4.4384  -4.3995   0.1309   0.1706   3.1599   3.7891
     8.6228   9.4637  14.2218  14.4765  17.1433  17.7145  19.6767  21.8932

     occupation numbers 
     1.0000   1.0000   1.0000   1.0000   1.0000   1.0000   1.0000   1.0000
     0.0000   0.0000   0.0000   0.0000   0.0000   0.0000   0.0000   0.0000

          k = 0.4792 0.8299 0.1410 (  2414 PWs)   bands (ev):

    -9.8855  -9.8584  -4.4327  -4.4082   0.1382   0.1632   3.2803   3.6776
     8.7302   9.2580  14.3182  14.4680  17.3290  17.6593  20.0427  21.4166

     occupation numbers 
     1.0000   1.0000   1.0000   1.0000   1.0000   1.0000   1.0000   1.0000
     0.0000   0.0000   0.0000   0.0000   0.0000   0.0000   0.0000   0.0000

          k = 0.4792 0.8299 0.1723 (  2413 PWs)   bands (ev):

    -9.8765  -9.8673  -4.4255  -4.4172   0.1464   0.1549   3.4134   3.5493
     8.8765   9.0564  14.3935  14.4425  17.4814  17.5886  20.4623  20.9268

     occupation numbers 
     1.0000   1.0000   1.0000   1.0000   1.0000   1.0000   1.0000   1.0000
     0.0000   0.0000   0.0000   0.0000   0.0000   0.0000   0.0000   0.0000

          k = 0.4792-0.2766 0.0157 (  2422 PWs)   bands (ev):

    -9.9557  -9.8761  -4.4263  -4.3615   0.2272   0.2907   2.8707   3.9278
     8.5335   9.9288  13.8271  14.3265  16.5983  17.9512  19.2350  22.7557

     occupation numbers 
     1.0000   1.0000   1.0000   1.0000   1.0000   1.0000   1.0000   1.0000
     0.0000   0.0000   0.0000   0.0000   0.0000   0.0000   0.0000   0.0000

          k = 0.4792-0.2766 0.0470 (  2419 PWs)   bands (ev):

    -9.9530  -9.8787  -4.4250  -4.3645   0.2294   0.2886   2.9079   3.8952
     8.5508   9.8489  13.8791  14.3298  16.6846  17.9188  19.3455  22.5996

     occupation numbers 
     1.0000   1.0000   1.0000   1.0000   1.0000   1.0000   1.0000   1.0000
     0.0000   0.0000   0.0000   0.0000   0.0000   0.0000   0.0000   0.0000

          k = 0.4792-0.2766 0.0783 (  2420 PWs)   bands (ev):

    -9.9477  -9.8839  -4.4222  -4.3703   0.2334   0.2844   2.9796   3.8310
     8.5913   9.7032  13.9689  14.3340  16.8411  17.8680  19.5472  22.2990

     occupation numbers 
     1.0000   1.0000   1.0000   1.0000   1.0000   1.0000   1.0000   1.0000
     0.0000   0.0000   0.0000   0.0000   0.0000   0.0000   0.0000   0.0000

          k = 0.4792-0.2766 0.1096 (  2420 PWs)   bands (ev):

    -9.9402  -9.8913  -4.4180  -4.3781   0.2393   0.2784   3.0811   3.7376
     8.6633   9.5143  14.0742  14.3347  17.0410  17.8062  19.8199  21.8898

     occupation numbers 
     1.0000   1.0000   1.0000   1.0000   1.0000   1.0000   1.0000   1.0000
     0.0000   0.0000   0.0000   0.0000   0.0000   0.0000   0.0000   0.0000

          k = 0.4792-0.2766 0.1410 (  2418 PWs)   bands (ev):

    -9.9310  -9.9003  -4.4121  -4.3870   0.2466   0.2711   3.2053   3.6197
     8.7729   9.3069  14.1727  14.3257  17.2539  17.7256  20.1510  21.4281

     occupation numbers 
     1.0000   1.0000   1.0000   1.0000   1.0000   1.0000   1.0000   1.0000
     0.0000   0.0000   0.0000   0.0000   0.0000   0.0000   0.0000   0.0000

          k = 0.4792-0.2766 0.1723 (  2410 PWs)   bands (ev):

    -9.9208  -9.9103  -4.4047  -4.3962   0.2547   0.2631   3.3435   3.4851
     8.9215   9.1035  14.2495  14.2996  17.4508  17.6102  20.5350  20.9657

     occupation numbers 
     1.0000   1.0000   1.0000   1.0000   1.0000   1.0000   1.0000   1.0000
     0.0000   0.0000   0.0000   0.0000   0.0000   0.0000   0.0000   0.0000

     highest occupied, lowest unoccupied level (ev):     4.4317    8.4973

!    total energy              =     -53.18618019 Ry
     Harris-Foulkes estimate   =     -53.18618019 Ry
     estimated scf accuracy    <          9.7E-13 Ry

     The total energy is the sum of the following terms:

     one-electron contribution =     -16.65977772 Ry
     hartree contribution      =      16.40360228 Ry
     xc contribution           =     -16.33682068 Ry
     ewald contribution        =     -36.59318407 Ry

     convergence has been achieved in   9 iterations

     Forces acting on atoms (cartesian axes, Ry/au):

     atom    1 type  1   force =     0.00000000    0.00000000    0.00000000
     atom    2 type  1   force =    -0.00000000   -0.00000000    0.00000000
     atom    3 type  2   force =     0.00000000    0.00000000    0.00000000
     atom    4 type  2   force =     0.00000000   -0.00000000    0.00000000
     The non-local contrib.  to forces
     atom    1 type  1   force =     0.00000000    0.00000000    0.00000000
     atom    2 type  1   force =     0.00000000    0.00000000    0.00000000
     atom    3 type  2   force =     0.00000000    0.00000000    0.00000000
     atom    4 type  2   force =     0.00000000   -0.00000000    0.00000000
     The ionic contribution  to forces
     atom    1 type  1   force =     0.00000002   -0.00000001   -0.00000000
     atom    2 type  1   force =    -0.00000002    0.00000001    0.00000000
     atom    3 type  2   force =     0.00000002   -0.00000001    0.00000000
     atom    4 type  2   force =    -0.00000002    0.00000001   -0.00000000
     The local contribution  to forces
     atom    1 type  1   force =    -0.00000000    0.00000000    0.00000000
     atom    2 type  1   force =     0.00000000   -0.00000000    0.00000000
     atom    3 type  2   force =     0.00000002   -0.00000001   -0.00000001
     atom    4 type  2   force =    -0.00000006    0.00000003   -0.00000001
     The core correction contribution to forces
     atom    1 type  1   force =    -0.00000000    0.00000000    0.00000000
     atom    2 type  1   force =     0.00000000   -0.00000000    0.00000000
     atom    3 type  2   force =     0.00000000    0.00000000    0.00000000
     atom    4 type  2   force =     0.00000000    0.00000000    0.00000000
     The Hubbard contrib.    to forces
     atom    1 type  1   force =     0.00000000    0.00000000    0.00000000
     atom    2 type  1   force =     0.00000000    0.00000000    0.00000000
     atom    3 type  2   force =     0.00000000    0.00000000    0.00000000
     atom    4 type  2   force =     0.00000000    0.00000000    0.00000000
     The SCF correction term to forces
     atom    1 type  1   force =     0.00000000   -0.00000000   -0.00000000
     atom    2 type  1   force =    -0.00000000    0.00000000   -0.00000000
     atom    3 type  2   force =     0.00000000   -0.00000000   -0.00000000
     atom    4 type  2   force =    -0.00000000    0.00000000   -0.00000000

     Total force =     0.000000     Total SCF correction =     0.000000


     Computing stress (Cartesian axis) and pressure

          total   stress  (Ry/bohr**3)                   (kbar)     P=  -75.69
  -0.00070599  -0.00000000   0.00000000       -103.85     -0.00      0.00
  -0.00000000  -0.00070599   0.00000000         -0.00   -103.85      0.00
   0.00000000   0.00000000  -0.00013161          0.00      0.00    -19.36

     kinetic stress (kbar)  14598.57     -0.00      0.00
                               -0.00  14598.57      0.00
                               -0.00     -0.00  15904.60

     local   stress (kbar) -19654.86     -0.00     -0.00
                               -0.00 -19654.86     -0.00
                               -0.00     -0.00  19614.43

     nonloc. stress (kbar)  -1635.68     -0.00      0.00
                               -0.00  -1635.68      0.00
                                0.00      0.00  -1615.63

     hartree stress (kbar)   7390.42     -0.00      0.00
                               -0.00   7390.42     -0.00
                                0.00     -0.00  -4894.89

     exc-cor stress (kbar)  -1775.69      0.00      0.00
                                0.00  -1775.69      0.00
                                0.00      0.00  -1775.69

     corecor stress (kbar)  -1097.70     -0.00      0.00
                               -0.00  -1097.70      0.00
                                0.00      0.00  -1056.41

     ewald   stress (kbar)   2071.08      0.00     -0.00
                                0.00   2071.08      0.00
                               -0.00      0.00 -26195.77

     hubbard stress (kbar)      0.00      0.00      0.00
                                0.00      0.00      0.00
                                0.00      0.00      0.00

     london  stress (kbar)      0.00      0.00      0.00
                                0.00      0.00      0.00
                                0.00      0.00      0.00

     DFT-D3  stress (kbar)      0.00      0.00      0.00
                                0.00      0.00      0.00
                                0.00      0.00      0.00

     XDM     stress (kbar)      0.00      0.00      0.00
                                0.00      0.00      0.00
                                0.00      0.00      0.00

     dft-nl  stress (kbar)      0.00      0.00      0.00
                                0.00      0.00      0.00
                                0.00      0.00      0.00

     TS-vdW  stress (kbar)      0.00      0.00      0.00
                                0.00      0.00      0.00
                                0.00      0.00      0.00



     Writing output data file BN.save/
 
     init_run     :     16.10s CPU      4.64s WALL (       1 calls)
     electrons    :    132.83s CPU     34.75s WALL (       1 calls)
     forces       :      1.41s CPU      0.37s WALL (       1 calls)
     stress       :      5.05s CPU      1.35s WALL (       1 calls)

     Called by init_run:
     wfcinit      :     14.80s CPU      3.93s WALL (       1 calls)
     wfcinit:atom :      0.46s CPU      0.12s WALL (      15 calls)
     wfcinit:wfcr :     11.44s CPU      2.98s WALL (      15 calls)
     potinit      :      0.17s CPU      0.05s WALL (       1 calls)
     hinit0       :      1.07s CPU      0.58s WALL (       1 calls)

     Called by electrons:
     c_bands      :    114.05s CPU     29.77s WALL (       9 calls)
     sum_band     :     16.90s CPU      4.38s WALL (       9 calls)
     v_of_rho     :      0.39s CPU      0.10s WALL (      10 calls)
     v_h          :      0.19s CPU      0.04s WALL (      10 calls)
     v_xc         :      0.23s CPU      0.08s WALL (      12 calls)
     mix_rho      :      0.55s CPU      0.18s WALL (       9 calls)

     Called by c_bands:
     init_us_2    :      3.22s CPU      1.00s WALL (     315 calls)
     cegterg      :     79.97s CPU     20.52s WALL (     135 calls)

     Called by sum_band:

     Called by *egterg:
     h_psi        :     75.41s CPU     19.39s WALL (     484 calls)
     g_psi        :      0.72s CPU      0.11s WALL (     334 calls)
     cdiaghg      :      6.02s CPU      1.65s WALL (     469 calls)
     cegterg:over :      2.17s CPU      0.95s WALL (     334 calls)
     cegterg:upda :      0.91s CPU      0.53s WALL (     334 calls)
     cegterg:last :      0.30s CPU      0.19s WALL (     135 calls)

     Called by h_psi:
     h_psi:pot    :     74.42s CPU     19.27s WALL (     484 calls)
     h_psi:calbec :      1.67s CPU      0.64s WALL (     484 calls)
     vloc_psi     :     69.95s CPU     17.96s WALL (     484 calls)
     add_vuspsi   :      2.37s CPU      0.64s WALL (     484 calls)

     General routines
     calbec       :      2.07s CPU      0.70s WALL (     559 calls)
     fft          :      0.06s CPU      0.11s WALL (      37 calls)
     ffts         :      0.01s CPU      0.01s WALL (       9 calls)
     fftw         :     45.74s CPU     16.95s WALL (   15288 calls)
 
     Parallel routines
 
     PWSCF        :   2m41.83s CPU     44.20s WALL

 
   This run was terminated on:  17:28:27  23Apr2020            

=------------------------------------------------------------------------------=
   JOB DONE.
=------------------------------------------------------------------------------=
