
     Program PWSCF v.6.4.1 starts on 26Apr2020 at 19:35:30 

     This program is part of the open-source Quantum ESPRESSO suite
     for quantum simulation of materials; please cite
         "P. Giannozzi et al., J. Phys.:Condens. Matter 21 395502 (2009);
         "P. Giannozzi et al., J. Phys.:Condens. Matter 29 465901 (2017);
          URL http://www.quantum-espresso.org", 
     in publications or presentations arising from this work. More details at
     http://www.quantum-espresso.org/quote

     Parallel version (MPI & OpenMP), running on     148 processor cores
     Number of MPI processes:                37
     Threads/MPI process:                     4

     MPI processes distributed on     1 nodes
     K-points division:     npool     =      37
     Waiting for input...
     Reading input from standard input
Warning: card &IONS ignored
Warning: card / ignored
Warning: card &CELL ignored
Warning: card / ignored

     Current dimensions of program PWSCF are:
     Max number of different atomic species (ntypx) = 10
     Max number of k-points (npk) =  40000
     Max angular momentum in pseudopotentials (lmaxx) =  3

     Atomic positions and unit cell read from directory:
     ./BN.save/
 
     Message from routine readpp:
     file ./BN.save/b.cpi.UPF not found
     Message from routine readpp:
     file ./BN.save/n.cpi.UPF not found
               file b.cpi.UPF: wavefunction(s)  3d 4f renormalized
               file n.cpi.UPF: wavefunction(s)  3d 4f renormalized

     Subspace diagonalization in iterative solution of the eigenvalue problem:
     a serial algorithm will be used

 
     G-vector sticks info
     --------------------
     sticks:   dense  smooth     PW     G-vecs:    dense   smooth      PW
     Sum         433     433    187                19375    19375    5305
 


     bravais-lattice index     =            4
     lattice parameter (alat)  =       4.7319  a.u.
     unit-cell volume          =     244.0890 (a.u.)^3
     number of atoms/cell      =            4
     number of atomic types    =            2
     number of electrons       =        16.00
     number of Kohn-Sham states=            8
     kinetic-energy cutoff     =      70.0000  Ry
     charge density cutoff     =     280.0000  Ry
     Exchange-correlation      = SLA  PZ   NOGX NOGC ( 1  1  0  0 0 0)

     celldm(1)=   4.731874  celldm(2)=   0.000000  celldm(3)=   2.660224
     celldm(4)=   0.000000  celldm(5)=   0.000000  celldm(6)=   0.000000

     crystal axes: (cart. coord. in units of alat)
               a(1) = (   1.000000   0.000000   0.000000 )  
               a(2) = (  -0.500000   0.866025   0.000000 )  
               a(3) = (   0.000000   0.000000   2.660224 )  

     reciprocal axes: (cart. coord. in units 2 pi/alat)
               b(1) = (  1.000000  0.577350  0.000000 )  
               b(2) = (  0.000000  1.154701  0.000000 )  
               b(3) = (  0.000000  0.000000  0.375908 )  


     PseudoPot. # 1 for B  read from file:
     ./b.cpi.UPF
     MD5 check sum: aadced629ac320abbac2d4088521b25e
     Pseudo is Norm-conserving + core correction, Zval =  3.0
     Generated by new atomic code, or converted to UPF format
     Using radial grid of  453 points,  3 beta functions with: 
                l(1) =   0
                l(2) =   1
                l(3) =   2

     PseudoPot. # 2 for N  read from file:
     ./n.cpi.UPF
     MD5 check sum: ff6dad263d6aed986b71703111ab3f52
     Pseudo is Norm-conserving, Zval =  5.0
     Generated by new atomic code, or converted to UPF format
     Using radial grid of  467 points,  3 beta functions with: 
                l(1) =   0
                l(2) =   1
                l(3) =   2

     atomic species   valence    mass     pseudopotential
        B              3.00    10.81100     B ( 1.00)
        N              5.00    14.00700     N ( 1.00)

     24 Sym. Ops., with inversion, found (12 have fractional translation)


                                    s                        frac. trans.

      isym =  1     identity                                     

 cryst.   s( 1) = (     1          0          0      )
                  (     0          1          0      )
                  (     0          0          1      )

 cart.    s( 1) = (  1.0000000  0.0000000  0.0000000 )
                  (  0.0000000  1.0000000  0.0000000 )
                  (  0.0000000  0.0000000  1.0000000 )


      isym =  2     180 deg rotation - cart. axis [0,0,1]        

 cryst.   s( 2) = (    -1          0          0      )    f =(  0.0000000 )
                  (     0         -1          0      )       (  0.0000000 )
                  (     0          0          1      )       ( -0.5000000 )

 cart.    s( 2) = ( -1.0000000  0.0000000  0.0000000 )    f =(  0.0000000 )
                  (  0.0000000 -1.0000000  0.0000000 )       (  0.0000000 )
                  (  0.0000000  0.0000000  1.0000000 )       ( -1.3301118 )


      isym =  3     180 deg rotation - cart. axis [0,1,0]        

 cryst.   s( 3) = (    -1          0          0      )    f =(  0.0000000 )
                  (     1          1          0      )       (  0.0000000 )
                  (     0          0         -1      )       (  0.5000000 )

 cart.    s( 3) = ( -1.0000000  0.0000000  0.0000000 )    f =(  0.0000000 )
                  (  0.0000000  1.0000000  0.0000000 )       (  0.0000000 )
                  (  0.0000000  0.0000000 -1.0000000 )       (  1.3301118 )


      isym =  4     180 deg rotation - cart. axis [1,0,0]        

 cryst.   s( 4) = (     1          0          0      )
                  (    -1         -1          0      )
                  (     0          0         -1      )

 cart.    s( 4) = (  1.0000000  0.0000000  0.0000000 )
                  (  0.0000000 -1.0000000  0.0000000 )
                  (  0.0000000  0.0000000 -1.0000000 )


      isym =  5      60 deg rotation - cryst. axis [0,0,1]       

 cryst.   s( 5) = (     1          1          0      )    f =(  0.0000000 )
                  (    -1          0          0      )       (  0.0000000 )
                  (     0          0          1      )       ( -0.5000000 )

 cart.    s( 5) = (  0.5000000 -0.8660254  0.0000000 )    f =(  0.0000000 )
                  (  0.8660254  0.5000000  0.0000000 )       (  0.0000000 )
                  (  0.0000000  0.0000000  1.0000000 )       ( -1.3301118 )


      isym =  6      60 deg rotation - cryst. axis [0,0,-1]      

 cryst.   s( 6) = (     0         -1          0      )    f =( -0.0000000 )
                  (     1          1          0      )       ( -0.0000000 )
                  (     0          0          1      )       ( -0.5000000 )

 cart.    s( 6) = (  0.5000000  0.8660254  0.0000000 )    f =(  0.0000000 )
                  ( -0.8660254  0.5000000  0.0000000 )       ( -0.0000000 )
                  (  0.0000000  0.0000000  1.0000000 )       ( -1.3301118 )


      isym =  7     120 deg rotation - cryst. axis [0,0,1]       

 cryst.   s( 7) = (     0          1          0      )
                  (    -1         -1          0      )
                  (     0          0          1      )

 cart.    s( 7) = ( -0.5000000 -0.8660254  0.0000000 )
                  (  0.8660254 -0.5000000  0.0000000 )
                  (  0.0000000  0.0000000  1.0000000 )


      isym =  8     120 deg rotation - cryst. axis [0,0,-1]      

 cryst.   s( 8) = (    -1         -1          0      )
                  (     1          0          0      )
                  (     0          0          1      )

 cart.    s( 8) = ( -0.5000000  0.8660254  0.0000000 )
                  ( -0.8660254 -0.5000000  0.0000000 )
                  (  0.0000000  0.0000000  1.0000000 )


      isym =  9     180 deg rotation - cryst. axis [1,-1,0]      

 cryst.   s( 9) = (     0         -1          0      )    f =(  0.0000000 )
                  (    -1          0          0      )       (  0.0000000 )
                  (     0          0         -1      )       (  0.5000000 )

 cart.    s( 9) = (  0.5000000 -0.8660254  0.0000000 )    f =(  0.0000000 )
                  ( -0.8660254 -0.5000000  0.0000000 )       (  0.0000000 )
                  (  0.0000000  0.0000000 -1.0000000 )       (  1.3301118 )


      isym = 10     180 deg rotation - cryst. axis [2,1,0]       

 cryst.   s(10) = (     1          1          0      )    f =(  0.0000000 )
                  (     0         -1          0      )       ( -0.0000000 )
                  (     0          0         -1      )       (  0.5000000 )

 cart.    s(10) = (  0.5000000  0.8660254  0.0000000 )    f =(  0.0000000 )
                  (  0.8660254 -0.5000000  0.0000000 )       ( -0.0000000 )
                  (  0.0000000  0.0000000 -1.0000000 )       (  1.3301118 )


      isym = 11     180 deg rotation - cryst. axis [0,1,0]       

 cryst.   s(11) = (    -1         -1          0      )
                  (     0          1          0      )
                  (     0          0         -1      )

 cart.    s(11) = ( -0.5000000 -0.8660254  0.0000000 )
                  ( -0.8660254  0.5000000  0.0000000 )
                  (  0.0000000  0.0000000 -1.0000000 )


      isym = 12     180 deg rotation - cryst. axis [1,1,0]       

 cryst.   s(12) = (     0          1          0      )
                  (     1          0          0      )
                  (     0          0         -1      )

 cart.    s(12) = ( -0.5000000  0.8660254  0.0000000 )
                  (  0.8660254  0.5000000  0.0000000 )
                  (  0.0000000  0.0000000 -1.0000000 )


      isym = 13     inversion                                    

 cryst.   s(13) = (    -1          0          0      )
                  (     0         -1          0      )
                  (     0          0         -1      )

 cart.    s(13) = ( -1.0000000  0.0000000  0.0000000 )
                  (  0.0000000 -1.0000000  0.0000000 )
                  (  0.0000000  0.0000000 -1.0000000 )


      isym = 14     inv. 180 deg rotation - cart. axis [0,0,1]   

 cryst.   s(14) = (     1          0          0      )    f =(  0.0000000 )
                  (     0          1          0      )       (  0.0000000 )
                  (     0          0         -1      )       (  0.5000000 )

 cart.    s(14) = (  1.0000000  0.0000000  0.0000000 )    f =(  0.0000000 )
                  (  0.0000000  1.0000000  0.0000000 )       (  0.0000000 )
                  (  0.0000000  0.0000000 -1.0000000 )       (  1.3301118 )


      isym = 15     inv. 180 deg rotation - cart. axis [0,1,0]   

 cryst.   s(15) = (     1          0          0      )    f =(  0.0000000 )
                  (    -1         -1          0      )       (  0.0000000 )
                  (     0          0          1      )       ( -0.5000000 )

 cart.    s(15) = (  1.0000000  0.0000000  0.0000000 )    f =(  0.0000000 )
                  (  0.0000000 -1.0000000  0.0000000 )       (  0.0000000 )
                  (  0.0000000  0.0000000  1.0000000 )       ( -1.3301118 )


      isym = 16     inv. 180 deg rotation - cart. axis [1,0,0]   

 cryst.   s(16) = (    -1          0          0      )
                  (     1          1          0      )
                  (     0          0          1      )

 cart.    s(16) = ( -1.0000000  0.0000000  0.0000000 )
                  (  0.0000000  1.0000000  0.0000000 )
                  (  0.0000000  0.0000000  1.0000000 )


      isym = 17     inv.  60 deg rotation - cryst. axis [0,0,1]  

 cryst.   s(17) = (    -1         -1          0      )    f =(  0.0000000 )
                  (     1          0          0      )       (  0.0000000 )
                  (     0          0         -1      )       (  0.5000000 )

 cart.    s(17) = ( -0.5000000  0.8660254  0.0000000 )    f =(  0.0000000 )
                  ( -0.8660254 -0.5000000  0.0000000 )       (  0.0000000 )
                  (  0.0000000  0.0000000 -1.0000000 )       (  1.3301118 )


      isym = 18     inv.  60 deg rotation - cryst. axis [0,0,-1] 

 cryst.   s(18) = (     0          1          0      )    f =(  0.0000000 )
                  (    -1         -1          0      )       ( -0.0000000 )
                  (     0          0         -1      )       (  0.5000000 )

 cart.    s(18) = ( -0.5000000 -0.8660254  0.0000000 )    f =(  0.0000000 )
                  (  0.8660254 -0.5000000  0.0000000 )       ( -0.0000000 )
                  (  0.0000000  0.0000000 -1.0000000 )       (  1.3301118 )


      isym = 19     inv. 120 deg rotation - cryst. axis [0,0,1]  

 cryst.   s(19) = (     0         -1          0      )
                  (     1          1          0      )
                  (     0          0         -1      )

 cart.    s(19) = (  0.5000000  0.8660254  0.0000000 )
                  ( -0.8660254  0.5000000  0.0000000 )
                  (  0.0000000  0.0000000 -1.0000000 )


      isym = 20     inv. 120 deg rotation - cryst. axis [0,0,-1] 

 cryst.   s(20) = (     1          1          0      )
                  (    -1          0          0      )
                  (     0          0         -1      )

 cart.    s(20) = (  0.5000000 -0.8660254  0.0000000 )
                  (  0.8660254  0.5000000  0.0000000 )
                  (  0.0000000  0.0000000 -1.0000000 )


      isym = 21     inv. 180 deg rotation - cryst. axis [1,-1,0] 

 cryst.   s(21) = (     0          1          0      )    f =( -0.0000000 )
                  (     1          0          0      )       (  0.0000000 )
                  (     0          0          1      )       ( -0.5000000 )

 cart.    s(21) = ( -0.5000000  0.8660254  0.0000000 )    f =( -0.0000000 )
                  (  0.8660254  0.5000000  0.0000000 )       (  0.0000000 )
                  (  0.0000000  0.0000000  1.0000000 )       ( -1.3301118 )


      isym = 22     inv. 180 deg rotation - cryst. axis [2,1,0]  

 cryst.   s(22) = (    -1         -1          0      )    f =(  0.0000000 )
                  (     0          1          0      )       ( -0.0000000 )
                  (     0          0          1      )       ( -0.5000000 )

 cart.    s(22) = ( -0.5000000 -0.8660254  0.0000000 )    f =(  0.0000000 )
                  ( -0.8660254  0.5000000  0.0000000 )       ( -0.0000000 )
                  (  0.0000000  0.0000000  1.0000000 )       ( -1.3301118 )


      isym = 23     inv. 180 deg rotation - cryst. axis [0,1,0]  

 cryst.   s(23) = (     1          1          0      )
                  (     0         -1          0      )
                  (     0          0          1      )

 cart.    s(23) = (  0.5000000  0.8660254  0.0000000 )
                  (  0.8660254 -0.5000000  0.0000000 )
                  (  0.0000000  0.0000000  1.0000000 )


      isym = 24     inv. 180 deg rotation - cryst. axis [1,1,0]  

 cryst.   s(24) = (     0         -1          0      )
                  (    -1          0          0      )
                  (     0          0          1      )

 cart.    s(24) = (  0.5000000 -0.8660254  0.0000000 )
                  ( -0.8660254 -0.5000000  0.0000000 )
                  (  0.0000000  0.0000000  1.0000000 )


     point group D_6h(6/mmm)
     there are 12 classes
     the character table:

       E     2C6   2C3   C2    3C2'  3C2'' i     2S3   2S6   s_h   3s_d  3s_v 
A_1g   1.00  1.00  1.00  1.00  1.00  1.00  1.00  1.00  1.00  1.00  1.00  1.00
A_2g   1.00  1.00  1.00  1.00 -1.00 -1.00  1.00  1.00  1.00  1.00 -1.00 -1.00
B_1g   1.00 -1.00  1.00 -1.00  1.00 -1.00  1.00 -1.00  1.00 -1.00  1.00 -1.00
B_2g   1.00 -1.00  1.00 -1.00 -1.00  1.00  1.00 -1.00  1.00 -1.00 -1.00  1.00
E_1g   2.00  1.00 -1.00 -2.00  0.00  0.00  2.00  1.00 -1.00 -2.00  0.00  0.00
E_2g   2.00 -1.00 -1.00  2.00  0.00  0.00  2.00 -1.00 -1.00  2.00  0.00  0.00
A_1u   1.00  1.00  1.00  1.00  1.00  1.00 -1.00 -1.00 -1.00 -1.00 -1.00 -1.00
A_2u   1.00  1.00  1.00  1.00 -1.00 -1.00 -1.00 -1.00 -1.00 -1.00  1.00  1.00
B_1u   1.00 -1.00  1.00 -1.00  1.00 -1.00 -1.00  1.00 -1.00  1.00 -1.00  1.00
B_2u   1.00 -1.00  1.00 -1.00 -1.00  1.00 -1.00  1.00 -1.00  1.00  1.00 -1.00
E_1u   2.00  1.00 -1.00 -2.00  0.00  0.00 -2.00 -1.00  1.00  2.00  0.00  0.00
E_2u   2.00 -1.00 -1.00  2.00  0.00  0.00 -2.00  1.00  1.00 -2.00  0.00  0.00

     the symmetry operations in each class and the name of the first element:

     E        1
          identity                                               
     2C6      5    6
           60 deg rotation - cryst. axis [0,0,1]                 
     2C3      7    8
          120 deg rotation - cryst. axis [0,0,1]                 
     C2       2
          180 deg rotation - cart. axis [0,0,1]                  
     3C2'     4   12   11
          180 deg rotation - cart. axis [1,0,0]                  
     3C2''    3    9   10
          180 deg rotation - cart. axis [0,1,0]                  
     i       13
          inversion                                              
     2S3     17   18
          inv.  60 deg rotation - cryst. axis [0,0,1]            
     2S6     19   20
          inv. 120 deg rotation - cryst. axis [0,0,1]            
     s_h     14
          inv. 180 deg rotation - cart. axis [0,0,1]             
     3s_d    16   24   23
          inv. 180 deg rotation - cart. axis [1,0,0]             
     3s_v    15   21   22
          inv. 180 deg rotation - cart. axis [0,1,0]             

   Cartesian axes

     site n.     atom                  positions (alat units)
         1           B   tau(   1) = (  -0.0000000   0.5773503   0.6650559  )
         2           B   tau(   2) = (   0.5000000   0.2886751   1.9951677  )
         3           N   tau(   3) = (  -0.0000000   0.5773503   1.9951677  )
         4           N   tau(   4) = (   0.5000000   0.2886751   0.6650559  )

   Crystallographic axes

     site n.     atom                  positions (cryst. coord.)
         1           B   tau(   1) = (  0.3333333  0.6666667  0.2500000  )
         2           B   tau(   2) = (  0.6666667  0.3333333  0.7500000  )
         3           N   tau(   3) = (  0.3333333  0.6666667  0.7500000  )
         4           N   tau(   4) = (  0.6666667  0.3333333  0.2500000  )

     number of k points=   666
                       cart. coord. in units 2pi/alat
        k(    1) = (   0.0010000   0.6260401   0.0313257), wk =   0.0030864
        k(    2) = (   0.0010000   0.6260401   0.0939771), wk =   0.0030864
        k(    3) = (   0.0010000   0.6260401   0.1566284), wk =   0.0030864
        k(    4) = (   0.0010000   0.7222652   0.0313257), wk =   0.0030864
        k(    5) = (   0.0010000   0.7222652   0.0939771), wk =   0.0030864
        k(    6) = (   0.0010000   0.7222652   0.1566284), wk =   0.0030864
        k(    7) = (   0.0010000   0.8184902   0.0313257), wk =   0.0030864
        k(    8) = (   0.0010000   0.8184902   0.0939771), wk =   0.0030864
        k(    9) = (   0.0010000   0.8184902   0.1566284), wk =   0.0030864
        k(   10) = (   0.0010000   0.9147153   0.0313257), wk =   0.0030864
        k(   11) = (   0.0010000   0.9147153   0.0939771), wk =   0.0030864
        k(   12) = (   0.0010000   0.9147153   0.1566284), wk =   0.0030864
        k(   13) = (   0.0010000   1.0109403   0.0313257), wk =   0.0030864
        k(   14) = (   0.0010000   1.0109403   0.0939771), wk =   0.0030864
        k(   15) = (   0.0010000   1.0109403   0.1566284), wk =   0.0030864
        k(   16) = (   0.0010000   1.1071654   0.0313257), wk =   0.0030864
        k(   17) = (   0.0010000   1.1071654   0.0939771), wk =   0.0030864
        k(   18) = (   0.0010000   1.1071654   0.1566284), wk =   0.0030864
        k(   19) = (   0.0426667   0.0246336   0.0313257), wk =   0.0015432
        k(   20) = (   0.0426667   0.0246336   0.0939771), wk =   0.0015432
        k(   21) = (   0.0426667   0.0246336   0.1566284), wk =   0.0015432
        k(   22) = (   0.0426667   0.0727461   0.0313257), wk =   0.0030864
        k(   23) = (   0.0426667   0.0727461   0.0939771), wk =   0.0030864
        k(   24) = (   0.0426667   0.0727461   0.1566284), wk =   0.0030864
        k(   25) = (   0.0426667   0.1208587   0.0313257), wk =   0.0030864
        k(   26) = (   0.0426667   0.1208587   0.0939771), wk =   0.0030864
        k(   27) = (   0.0426667   0.1208587   0.1566284), wk =   0.0030864
        k(   28) = (   0.0426667   0.1689712   0.0313257), wk =   0.0030864
        k(   29) = (   0.0426667   0.1689712   0.0939771), wk =   0.0030864
        k(   30) = (   0.0426667   0.1689712   0.1566284), wk =   0.0030864
        k(   31) = (   0.0426667   0.2170837   0.0313257), wk =   0.0030864
        k(   32) = (   0.0426667   0.2170837   0.0939771), wk =   0.0030864
        k(   33) = (   0.0426667   0.2170837   0.1566284), wk =   0.0030864
        k(   34) = (   0.0426667   0.2651962   0.0313257), wk =   0.0030864
        k(   35) = (   0.0426667   0.2651962   0.0939771), wk =   0.0030864
        k(   36) = (   0.0426667   0.2651962   0.1566284), wk =   0.0030864
        k(   37) = (   0.0426667   0.3133087   0.0313257), wk =   0.0030864
        k(   38) = (   0.0426667   0.3133087   0.0939771), wk =   0.0030864
        k(   39) = (   0.0426667   0.3133087   0.1566284), wk =   0.0030864
        k(   40) = (   0.0426667   0.3614213   0.0313257), wk =   0.0030864
        k(   41) = (   0.0426667   0.3614213   0.0939771), wk =   0.0030864
        k(   42) = (   0.0426667   0.3614213   0.1566284), wk =   0.0030864
        k(   43) = (   0.0426667   0.4095338   0.0313257), wk =   0.0030864
        k(   44) = (   0.0426667   0.4095338   0.0939771), wk =   0.0030864
        k(   45) = (   0.0426667   0.4095338   0.1566284), wk =   0.0030864
        k(   46) = (   0.0426667   0.4576463   0.0313257), wk =   0.0030864
        k(   47) = (   0.0426667   0.4576463   0.0939771), wk =   0.0030864
        k(   48) = (   0.0426667   0.4576463   0.1566284), wk =   0.0030864
        k(   49) = (   0.0426667   0.5057588   0.0313257), wk =   0.0030864
        k(   50) = (   0.0426667   0.5057588   0.0939771), wk =   0.0030864
        k(   51) = (   0.0426667   0.5057588   0.1566284), wk =   0.0030864
        k(   52) = (   0.0426667   0.5538714   0.0313257), wk =   0.0030864
        k(   53) = (   0.0426667   0.5538714   0.0939771), wk =   0.0030864
        k(   54) = (   0.0426667   0.5538714   0.1566284), wk =   0.0030864
        k(   55) = (   0.0426667   0.6019839   0.0313257), wk =   0.0030864
        k(   56) = (   0.0426667   0.6019839   0.0939771), wk =   0.0030864
        k(   57) = (   0.0426667   0.6019839   0.1566284), wk =   0.0030864
        k(   58) = (   0.0426667   0.6500964   0.0313257), wk =   0.0030864
        k(   59) = (   0.0426667   0.6500964   0.0939771), wk =   0.0030864
        k(   60) = (   0.0426667   0.6500964   0.1566284), wk =   0.0030864
        k(   61) = (   0.0426667   0.6982089   0.0313257), wk =   0.0030864
        k(   62) = (   0.0426667   0.6982089   0.0939771), wk =   0.0030864
        k(   63) = (   0.0426667   0.6982089   0.1566284), wk =   0.0030864
        k(   64) = (   0.0426667   0.7463214   0.0313257), wk =   0.0030864
        k(   65) = (   0.0426667   0.7463214   0.0939771), wk =   0.0030864
        k(   66) = (   0.0426667   0.7463214   0.1566284), wk =   0.0030864
        k(   67) = (   0.0426667   0.7944340   0.0313257), wk =   0.0030864
        k(   68) = (   0.0426667   0.7944340   0.0939771), wk =   0.0030864
        k(   69) = (   0.0426667   0.7944340   0.1566284), wk =   0.0030864
        k(   70) = (   0.0426667   0.8425465   0.0313257), wk =   0.0030864
        k(   71) = (   0.0426667   0.8425465   0.0939771), wk =   0.0030864
        k(   72) = (   0.0426667   0.8425465   0.1566284), wk =   0.0030864
        k(   73) = (   0.0426667   0.8906590   0.0313257), wk =   0.0030864
        k(   74) = (   0.0426667   0.8906590   0.0939771), wk =   0.0030864
        k(   75) = (   0.0426667   0.8906590   0.1566284), wk =   0.0030864
        k(   76) = (   0.0426667   0.9387715   0.0313257), wk =   0.0030864
        k(   77) = (   0.0426667   0.9387715   0.0939771), wk =   0.0030864
        k(   78) = (   0.0426667   0.9387715   0.1566284), wk =   0.0030864
        k(   79) = (   0.0426667   0.9868841   0.0313257), wk =   0.0030864
        k(   80) = (   0.0426667   0.9868841   0.0939771), wk =   0.0030864
        k(   81) = (   0.0426667   0.9868841   0.1566284), wk =   0.0030864
        k(   82) = (   0.0426667   1.0349966   0.0313257), wk =   0.0030864
        k(   83) = (   0.0426667   1.0349966   0.0939771), wk =   0.0030864
        k(   84) = (   0.0426667   1.0349966   0.1566284), wk =   0.0030864
        k(   85) = (   0.0426667   1.1312216   0.0313257), wk =   0.0030864
        k(   86) = (   0.0426667   1.1312216   0.0939771), wk =   0.0030864
        k(   87) = (   0.0426667   1.1312216   0.1566284), wk =   0.0030864
        k(   88) = (   0.0843333   0.0968024   0.0313257), wk =   0.0030864
        k(   89) = (   0.0843333   0.0968024   0.0939771), wk =   0.0030864
        k(   90) = (   0.0843333   0.0968024   0.1566284), wk =   0.0030864
        k(   91) = (   0.0843333   0.1930274   0.0313257), wk =   0.0030864
        k(   92) = (   0.0843333   0.1930274   0.0939771), wk =   0.0030864
        k(   93) = (   0.0843333   0.1930274   0.1566284), wk =   0.0030864
        k(   94) = (   0.0843333   0.2892525   0.0313257), wk =   0.0030864
        k(   95) = (   0.0843333   0.2892525   0.0939771), wk =   0.0030864
        k(   96) = (   0.0843333   0.2892525   0.1566284), wk =   0.0030864
        k(   97) = (   0.0843333   0.3854775   0.0313257), wk =   0.0030864
        k(   98) = (   0.0843333   0.3854775   0.0939771), wk =   0.0030864
        k(   99) = (   0.0843333   0.3854775   0.1566284), wk =   0.0030864
        k(  100) = (   0.0843333   0.4817026   0.0313257), wk =   0.0030864
        k(  101) = (   0.0843333   0.4817026   0.0939771), wk =   0.0030864
        k(  102) = (   0.0843333   0.4817026   0.1566284), wk =   0.0030864
        k(  103) = (   0.0843333   0.5779276   0.0313257), wk =   0.0030864
        k(  104) = (   0.0843333   0.5779276   0.0939771), wk =   0.0030864
        k(  105) = (   0.0843333   0.5779276   0.1566284), wk =   0.0030864
        k(  106) = (   0.0843333   0.6741527   0.0313257), wk =   0.0030864
        k(  107) = (   0.0843333   0.6741527   0.0939771), wk =   0.0030864
        k(  108) = (   0.0843333   0.6741527   0.1566284), wk =   0.0030864
        k(  109) = (   0.0843333   0.7703777   0.0313257), wk =   0.0030864
        k(  110) = (   0.0843333   0.7703777   0.0939771), wk =   0.0030864
        k(  111) = (   0.0843333   0.7703777   0.1566284), wk =   0.0030864
        k(  112) = (   0.0843333   0.8666028   0.0313257), wk =   0.0030864
        k(  113) = (   0.0843333   0.8666028   0.0939771), wk =   0.0030864
        k(  114) = (   0.0843333   0.8666028   0.1566284), wk =   0.0030864
        k(  115) = (   0.0843333   0.9628278   0.0313257), wk =   0.0030864
        k(  116) = (   0.0843333   0.9628278   0.0939771), wk =   0.0030864
        k(  117) = (   0.0843333   0.9628278   0.1566284), wk =   0.0030864
        k(  118) = (   0.0843333   1.0590528   0.0313257), wk =   0.0030864
        k(  119) = (   0.0843333   1.0590528   0.0939771), wk =   0.0030864
        k(  120) = (   0.0843333   1.0590528   0.1566284), wk =   0.0030864
        k(  121) = (   0.1260000   0.0727461   0.0313257), wk =   0.0015432
        k(  122) = (   0.1260000   0.0727461   0.0939771), wk =   0.0015432
        k(  123) = (   0.1260000   0.0727461   0.1566284), wk =   0.0015432
        k(  124) = (   0.1260000   0.1689712   0.0313257), wk =   0.0030864
        k(  125) = (   0.1260000   0.1689712   0.0939771), wk =   0.0030864
        k(  126) = (   0.1260000   0.1689712   0.1566284), wk =   0.0030864
        k(  127) = (   0.1260000   0.2170837   0.0313257), wk =   0.0030864
        k(  128) = (   0.1260000   0.2170837   0.0939771), wk =   0.0030864
        k(  129) = (   0.1260000   0.2170837   0.1566284), wk =   0.0030864
        k(  130) = (   0.1260000   0.2651962   0.0313257), wk =   0.0030864
        k(  131) = (   0.1260000   0.2651962   0.0939771), wk =   0.0030864
        k(  132) = (   0.1260000   0.2651962   0.1566284), wk =   0.0030864
        k(  133) = (   0.1260000   0.3133087   0.0313257), wk =   0.0030864
        k(  134) = (   0.1260000   0.3133087   0.0939771), wk =   0.0030864
        k(  135) = (   0.1260000   0.3133087   0.1566284), wk =   0.0030864
        k(  136) = (   0.1260000   0.3614213   0.0313257), wk =   0.0030864
        k(  137) = (   0.1260000   0.3614213   0.0939771), wk =   0.0030864
        k(  138) = (   0.1260000   0.3614213   0.1566284), wk =   0.0030864
        k(  139) = (   0.1260000   0.4095338   0.0313257), wk =   0.0030864
        k(  140) = (   0.1260000   0.4095338   0.0939771), wk =   0.0030864
        k(  141) = (   0.1260000   0.4095338   0.1566284), wk =   0.0030864
        k(  142) = (   0.1260000   0.4576463   0.0313257), wk =   0.0030864
        k(  143) = (   0.1260000   0.4576463   0.0939771), wk =   0.0030864
        k(  144) = (   0.1260000   0.4576463   0.1566284), wk =   0.0030864
        k(  145) = (   0.1260000   0.5057588   0.0313257), wk =   0.0030864
        k(  146) = (   0.1260000   0.5057588   0.0939771), wk =   0.0030864
        k(  147) = (   0.1260000   0.5057588   0.1566284), wk =   0.0030864
        k(  148) = (   0.1260000   0.5538714   0.0313257), wk =   0.0030864
        k(  149) = (   0.1260000   0.5538714   0.0939771), wk =   0.0030864
        k(  150) = (   0.1260000   0.5538714   0.1566284), wk =   0.0030864
        k(  151) = (   0.1260000   0.6019839   0.0313257), wk =   0.0030864
        k(  152) = (   0.1260000   0.6019839   0.0939771), wk =   0.0030864
        k(  153) = (   0.1260000   0.6019839   0.1566284), wk =   0.0030864
        k(  154) = (   0.1260000   0.6500964   0.0313257), wk =   0.0030864
        k(  155) = (   0.1260000   0.6500964   0.0939771), wk =   0.0030864
        k(  156) = (   0.1260000   0.6500964   0.1566284), wk =   0.0030864
        k(  157) = (   0.1260000   0.6982089   0.0313257), wk =   0.0030864
        k(  158) = (   0.1260000   0.6982089   0.0939771), wk =   0.0030864
        k(  159) = (   0.1260000   0.6982089   0.1566284), wk =   0.0030864
        k(  160) = (   0.1260000   0.7463214   0.0313257), wk =   0.0030864
        k(  161) = (   0.1260000   0.7463214   0.0939771), wk =   0.0030864
        k(  162) = (   0.1260000   0.7463214   0.1566284), wk =   0.0030864
        k(  163) = (   0.1260000   0.7944340   0.0313257), wk =   0.0030864
        k(  164) = (   0.1260000   0.7944340   0.0939771), wk =   0.0030864
        k(  165) = (   0.1260000   0.7944340   0.1566284), wk =   0.0030864
        k(  166) = (   0.1260000   0.8425465   0.0313257), wk =   0.0030864
        k(  167) = (   0.1260000   0.8425465   0.0939771), wk =   0.0030864
        k(  168) = (   0.1260000   0.8425465   0.1566284), wk =   0.0030864
        k(  169) = (   0.1260000   0.8906590   0.0313257), wk =   0.0030864
        k(  170) = (   0.1260000   0.8906590   0.0939771), wk =   0.0030864
        k(  171) = (   0.1260000   0.8906590   0.1566284), wk =   0.0030864
        k(  172) = (   0.1260000   0.9868841   0.0313257), wk =   0.0030864
        k(  173) = (   0.1260000   0.9868841   0.0939771), wk =   0.0030864
        k(  174) = (   0.1260000   0.9868841   0.1566284), wk =   0.0030864
        k(  175) = (   0.1260000   1.0831091   0.0313257), wk =   0.0030864
        k(  176) = (   0.1260000   1.0831091   0.0939771), wk =   0.0030864
        k(  177) = (   0.1260000   1.0831091   0.1566284), wk =   0.0030864
        k(  178) = (   0.1676667   0.1449149   0.0313257), wk =   0.0030864
        k(  179) = (   0.1676667   0.1449149   0.0939771), wk =   0.0030864
        k(  180) = (   0.1676667   0.1449149   0.1566284), wk =   0.0030864
        k(  181) = (   0.1676667   0.2411400   0.0313257), wk =   0.0030864
        k(  182) = (   0.1676667   0.2411400   0.0939771), wk =   0.0030864
        k(  183) = (   0.1676667   0.2411400   0.1566284), wk =   0.0030864
        k(  184) = (   0.1676667   0.3373650   0.0313257), wk =   0.0030864
        k(  185) = (   0.1676667   0.3373650   0.0939771), wk =   0.0030864
        k(  186) = (   0.1676667   0.3373650   0.1566284), wk =   0.0030864
        k(  187) = (   0.1676667   0.4335901   0.0313257), wk =   0.0030864
        k(  188) = (   0.1676667   0.4335901   0.0939771), wk =   0.0030864
        k(  189) = (   0.1676667   0.4335901   0.1566284), wk =   0.0030864
        k(  190) = (   0.1676667   0.5298151   0.0313257), wk =   0.0030864
        k(  191) = (   0.1676667   0.5298151   0.0939771), wk =   0.0030864
        k(  192) = (   0.1676667   0.5298151   0.1566284), wk =   0.0030864
        k(  193) = (   0.1676667   0.6260401   0.0313257), wk =   0.0030864
        k(  194) = (   0.1676667   0.6260401   0.0939771), wk =   0.0030864
        k(  195) = (   0.1676667   0.6260401   0.1566284), wk =   0.0030864
        k(  196) = (   0.1676667   0.7222652   0.0313257), wk =   0.0030864
        k(  197) = (   0.1676667   0.7222652   0.0939771), wk =   0.0030864
        k(  198) = (   0.1676667   0.7222652   0.1566284), wk =   0.0030864
        k(  199) = (   0.1676667   0.8184902   0.0313257), wk =   0.0030864
        k(  200) = (   0.1676667   0.8184902   0.0939771), wk =   0.0030864
        k(  201) = (   0.1676667   0.8184902   0.1566284), wk =   0.0030864
        k(  202) = (   0.1676667   0.9147153   0.0313257), wk =   0.0030864
        k(  203) = (   0.1676667   0.9147153   0.0939771), wk =   0.0030864
        k(  204) = (   0.1676667   0.9147153   0.1566284), wk =   0.0030864
        k(  205) = (   0.1676667   1.0109403   0.0313257), wk =   0.0030864
        k(  206) = (   0.1676667   1.0109403   0.0939771), wk =   0.0030864
        k(  207) = (   0.1676667   1.0109403   0.1566284), wk =   0.0030864
        k(  208) = (   0.1676667   1.2033904   0.0313257), wk =   0.0030864
        k(  209) = (   0.1676667   1.2033904   0.0939771), wk =   0.0030864
        k(  210) = (   0.1676667   1.2033904   0.1566284), wk =   0.0030864
        k(  211) = (   0.2093333   0.1208587   0.0313257), wk =   0.0015432
        k(  212) = (   0.2093333   0.1208587   0.0939771), wk =   0.0015432
        k(  213) = (   0.2093333   0.1208587   0.1566284), wk =   0.0015432
        k(  214) = (   0.2093333   0.2170837   0.0313257), wk =   0.0030864
        k(  215) = (   0.2093333   0.2170837   0.0939771), wk =   0.0030864
        k(  216) = (   0.2093333   0.2170837   0.1566284), wk =   0.0030864
        k(  217) = (   0.2093333   0.3133087   0.0313257), wk =   0.0030864
        k(  218) = (   0.2093333   0.3133087   0.0939771), wk =   0.0030864
        k(  219) = (   0.2093333   0.3133087   0.1566284), wk =   0.0030864
        k(  220) = (   0.2093333   0.3614213   0.0313257), wk =   0.0030864
        k(  221) = (   0.2093333   0.3614213   0.0939771), wk =   0.0030864
        k(  222) = (   0.2093333   0.3614213   0.1566284), wk =   0.0030864
        k(  223) = (   0.2093333   0.4095338   0.0313257), wk =   0.0030864
        k(  224) = (   0.2093333   0.4095338   0.0939771), wk =   0.0030864
        k(  225) = (   0.2093333   0.4095338   0.1566284), wk =   0.0030864
        k(  226) = (   0.2093333   0.4576463   0.0313257), wk =   0.0030864
        k(  227) = (   0.2093333   0.4576463   0.0939771), wk =   0.0030864
        k(  228) = (   0.2093333   0.4576463   0.1566284), wk =   0.0030864
        k(  229) = (   0.2093333   0.5057588   0.0313257), wk =   0.0030864
        k(  230) = (   0.2093333   0.5057588   0.0939771), wk =   0.0030864
        k(  231) = (   0.2093333   0.5057588   0.1566284), wk =   0.0030864
        k(  232) = (   0.2093333   0.5538714   0.0313257), wk =   0.0030864
        k(  233) = (   0.2093333   0.5538714   0.0939771), wk =   0.0030864
        k(  234) = (   0.2093333   0.5538714   0.1566284), wk =   0.0030864
        k(  235) = (   0.2093333   0.6019839   0.0313257), wk =   0.0030864
        k(  236) = (   0.2093333   0.6019839   0.0939771), wk =   0.0030864
        k(  237) = (   0.2093333   0.6019839   0.1566284), wk =   0.0030864
        k(  238) = (   0.2093333   0.6500964   0.0313257), wk =   0.0030864
        k(  239) = (   0.2093333   0.6500964   0.0939771), wk =   0.0030864
        k(  240) = (   0.2093333   0.6500964   0.1566284), wk =   0.0030864
        k(  241) = (   0.2093333   0.6982089   0.0313257), wk =   0.0030864
        k(  242) = (   0.2093333   0.6982089   0.0939771), wk =   0.0030864
        k(  243) = (   0.2093333   0.6982089   0.1566284), wk =   0.0030864
        k(  244) = (   0.2093333   0.7463214   0.0313257), wk =   0.0030864
        k(  245) = (   0.2093333   0.7463214   0.0939771), wk =   0.0030864
        k(  246) = (   0.2093333   0.7463214   0.1566284), wk =   0.0030864
        k(  247) = (   0.2093333   0.8425465   0.0313257), wk =   0.0030864
        k(  248) = (   0.2093333   0.8425465   0.0939771), wk =   0.0030864
        k(  249) = (   0.2093333   0.8425465   0.1566284), wk =   0.0030864
        k(  250) = (   0.2093333   0.9387715   0.0313257), wk =   0.0030864
        k(  251) = (   0.2093333   0.9387715   0.0939771), wk =   0.0030864
        k(  252) = (   0.2093333   0.9387715   0.1566284), wk =   0.0030864
        k(  253) = (   0.2093333   1.0349966   0.0313257), wk =   0.0030864
        k(  254) = (   0.2093333   1.0349966   0.0939771), wk =   0.0030864
        k(  255) = (   0.2093333   1.0349966   0.1566284), wk =   0.0030864
        k(  256) = (   0.2510000   0.1930274   0.0313257), wk =   0.0030864
        k(  257) = (   0.2510000   0.1930274   0.0939771), wk =   0.0030864
        k(  258) = (   0.2510000   0.1930274   0.1566284), wk =   0.0030864
        k(  259) = (   0.2510000   0.2892525   0.0313257), wk =   0.0030864
        k(  260) = (   0.2510000   0.2892525   0.0939771), wk =   0.0030864
        k(  261) = (   0.2510000   0.2892525   0.1566284), wk =   0.0030864
        k(  262) = (   0.2510000   0.3854775   0.0313257), wk =   0.0030864
        k(  263) = (   0.2510000   0.3854775   0.0939771), wk =   0.0030864
        k(  264) = (   0.2510000   0.3854775   0.1566284), wk =   0.0030864
        k(  265) = (   0.2510000   0.4817026   0.0313257), wk =   0.0030864
        k(  266) = (   0.2510000   0.4817026   0.0939771), wk =   0.0030864
        k(  267) = (   0.2510000   0.4817026   0.1566284), wk =   0.0030864
        k(  268) = (   0.2510000   0.5779276   0.0313257), wk =   0.0030864
        k(  269) = (   0.2510000   0.5779276   0.0939771), wk =   0.0030864
        k(  270) = (   0.2510000   0.5779276   0.1566284), wk =   0.0030864
        k(  271) = (   0.2510000   0.6741527   0.0313257), wk =   0.0030864
        k(  272) = (   0.2510000   0.6741527   0.0939771), wk =   0.0030864
        k(  273) = (   0.2510000   0.6741527   0.1566284), wk =   0.0030864
        k(  274) = (   0.2510000   0.7703777   0.0313257), wk =   0.0030864
        k(  275) = (   0.2510000   0.7703777   0.0939771), wk =   0.0030864
        k(  276) = (   0.2510000   0.7703777   0.1566284), wk =   0.0030864
        k(  277) = (   0.2510000   0.8666028   0.0313257), wk =   0.0030864
        k(  278) = (   0.2510000   0.8666028   0.0939771), wk =   0.0030864
        k(  279) = (   0.2510000   0.8666028   0.1566284), wk =   0.0030864
        k(  280) = (   0.2510000   0.9628278   0.0313257), wk =   0.0030864
        k(  281) = (   0.2510000   0.9628278   0.0939771), wk =   0.0030864
        k(  282) = (   0.2510000   0.9628278   0.1566284), wk =   0.0030864
        k(  283) = (   0.2510000   1.2515029   0.0313257), wk =   0.0030864
        k(  284) = (   0.2510000   1.2515029   0.0939771), wk =   0.0030864
        k(  285) = (   0.2510000   1.2515029   0.1566284), wk =   0.0030864
        k(  286) = (   0.2926667   0.1689712   0.0313257), wk =   0.0015432
        k(  287) = (   0.2926667   0.1689712   0.0939771), wk =   0.0015432
        k(  288) = (   0.2926667   0.1689712   0.1566284), wk =   0.0015432
        k(  289) = (   0.2926667   0.2651962   0.0313257), wk =   0.0030864
        k(  290) = (   0.2926667   0.2651962   0.0939771), wk =   0.0030864
        k(  291) = (   0.2926667   0.2651962   0.1566284), wk =   0.0030864
        k(  292) = (   0.2926667   0.3614213   0.0313257), wk =   0.0030864
        k(  293) = (   0.2926667   0.3614213   0.0939771), wk =   0.0030864
        k(  294) = (   0.2926667   0.3614213   0.1566284), wk =   0.0030864
        k(  295) = (   0.2926667   0.4576463   0.0313257), wk =   0.0030864
        k(  296) = (   0.2926667   0.4576463   0.0939771), wk =   0.0030864
        k(  297) = (   0.2926667   0.4576463   0.1566284), wk =   0.0030864
        k(  298) = (   0.2926667   0.5057588   0.0313257), wk =   0.0030864
        k(  299) = (   0.2926667   0.5057588   0.0939771), wk =   0.0030864
        k(  300) = (   0.2926667   0.5057588   0.1566284), wk =   0.0030864
        k(  301) = (   0.2926667   0.5538714   0.0313257), wk =   0.0030864
        k(  302) = (   0.2926667   0.5538714   0.0939771), wk =   0.0030864
        k(  303) = (   0.2926667   0.5538714   0.1566284), wk =   0.0030864
        k(  304) = (   0.2926667   0.6019839   0.0313257), wk =   0.0030864
        k(  305) = (   0.2926667   0.6019839   0.0939771), wk =   0.0030864
        k(  306) = (   0.2926667   0.6019839   0.1566284), wk =   0.0030864
        k(  307) = (   0.2926667   0.6982089   0.0313257), wk =   0.0030864
        k(  308) = (   0.2926667   0.6982089   0.0939771), wk =   0.0030864
        k(  309) = (   0.2926667   0.6982089   0.1566284), wk =   0.0030864
        k(  310) = (   0.2926667   0.7944340   0.0313257), wk =   0.0030864
        k(  311) = (   0.2926667   0.7944340   0.0939771), wk =   0.0030864
        k(  312) = (   0.2926667   0.7944340   0.1566284), wk =   0.0030864
        k(  313) = (   0.2926667   0.8906590   0.0313257), wk =   0.0030864
        k(  314) = (   0.2926667   0.8906590   0.0939771), wk =   0.0030864
        k(  315) = (   0.2926667   0.8906590   0.1566284), wk =   0.0030864
        k(  316) = (   0.2926667   0.9868841   0.0313257), wk =   0.0030864
        k(  317) = (   0.2926667   0.9868841   0.0939771), wk =   0.0030864
        k(  318) = (   0.2926667   0.9868841   0.1566284), wk =   0.0030864
        k(  319) = (   0.3343333   0.2411400   0.0313257), wk =   0.0030864
        k(  320) = (   0.3343333   0.2411400   0.0939771), wk =   0.0030864
        k(  321) = (   0.3343333   0.2411400   0.1566284), wk =   0.0030864
        k(  322) = (   0.3343333   0.3373650   0.0313257), wk =   0.0030864
        k(  323) = (   0.3343333   0.3373650   0.0939771), wk =   0.0030864
        k(  324) = (   0.3343333   0.3373650   0.1566284), wk =   0.0030864
        k(  325) = (   0.3343333   0.4335901   0.0313257), wk =   0.0030864
        k(  326) = (   0.3343333   0.4335901   0.0939771), wk =   0.0030864
        k(  327) = (   0.3343333   0.4335901   0.1566284), wk =   0.0030864
        k(  328) = (   0.3343333   0.5298151   0.0313257), wk =   0.0030864
        k(  329) = (   0.3343333   0.5298151   0.0939771), wk =   0.0030864
        k(  330) = (   0.3343333   0.5298151   0.1566284), wk =   0.0030864
        k(  331) = (   0.3343333   0.6260401   0.0313257), wk =   0.0030864
        k(  332) = (   0.3343333   0.6260401   0.0939771), wk =   0.0030864
        k(  333) = (   0.3343333   0.6260401   0.1566284), wk =   0.0030864
        k(  334) = (   0.3343333   0.7222652   0.0313257), wk =   0.0030864
        k(  335) = (   0.3343333   0.7222652   0.0939771), wk =   0.0030864
        k(  336) = (   0.3343333   0.7222652   0.1566284), wk =   0.0030864
        k(  337) = (   0.3343333   0.8184902   0.0313257), wk =   0.0030864
        k(  338) = (   0.3343333   0.8184902   0.0939771), wk =   0.0030864
        k(  339) = (   0.3343333   0.8184902   0.1566284), wk =   0.0030864
        k(  340) = (   0.3343333   0.9147153   0.0313257), wk =   0.0030864
        k(  341) = (   0.3343333   0.9147153   0.0939771), wk =   0.0030864
        k(  342) = (   0.3343333   0.9147153   0.1566284), wk =   0.0030864
        k(  343) = (   0.3343333   1.2033904   0.0313257), wk =   0.0030864
        k(  344) = (   0.3343333   1.2033904   0.0939771), wk =   0.0030864
        k(  345) = (   0.3343333   1.2033904   0.1566284), wk =   0.0030864
        k(  346) = (   0.3343333   1.2996155   0.0313257), wk =   0.0030864
        k(  347) = (   0.3343333   1.2996155   0.0939771), wk =   0.0030864
        k(  348) = (   0.3343333   1.2996155   0.1566284), wk =   0.0030864
        k(  349) = (   0.3760000   0.2170837   0.0313257), wk =   0.0015432
        k(  350) = (   0.3760000   0.2170837   0.0939771), wk =   0.0015432
        k(  351) = (   0.3760000   0.2170837   0.1566284), wk =   0.0015432
        k(  352) = (   0.3760000   0.3133087   0.0313257), wk =   0.0030864
        k(  353) = (   0.3760000   0.3133087   0.0939771), wk =   0.0030864
        k(  354) = (   0.3760000   0.3133087   0.1566284), wk =   0.0030864
        k(  355) = (   0.3760000   0.4095338   0.0313257), wk =   0.0030864
        k(  356) = (   0.3760000   0.4095338   0.0939771), wk =   0.0030864
        k(  357) = (   0.3760000   0.4095338   0.1566284), wk =   0.0030864
        k(  358) = (   0.3760000   0.6500964   0.0313257), wk =   0.0030864
        k(  359) = (   0.3760000   0.6500964   0.0939771), wk =   0.0030864
        k(  360) = (   0.3760000   0.6500964   0.1566284), wk =   0.0030864
        k(  361) = (   0.3760000   0.7463214   0.0313257), wk =   0.0030864
        k(  362) = (   0.3760000   0.7463214   0.0939771), wk =   0.0030864
        k(  363) = (   0.3760000   0.7463214   0.1566284), wk =   0.0030864
        k(  364) = (   0.3760000   0.8425465   0.0313257), wk =   0.0030864
        k(  365) = (   0.3760000   0.8425465   0.0939771), wk =   0.0030864
        k(  366) = (   0.3760000   0.8425465   0.1566284), wk =   0.0030864
        k(  367) = (   0.3760000   0.9387715   0.0313257), wk =   0.0030864
        k(  368) = (   0.3760000   0.9387715   0.0939771), wk =   0.0030864
        k(  369) = (   0.3760000   0.9387715   0.1566284), wk =   0.0030864
        k(  370) = (   0.4176667   0.2892525   0.0313257), wk =   0.0030864
        k(  371) = (   0.4176667   0.2892525   0.0939771), wk =   0.0030864
        k(  372) = (   0.4176667   0.2892525   0.1566284), wk =   0.0030864
        k(  373) = (   0.4176667   0.3854775   0.0313257), wk =   0.0030864
        k(  374) = (   0.4176667   0.3854775   0.0939771), wk =   0.0030864
        k(  375) = (   0.4176667   0.3854775   0.1566284), wk =   0.0030864
        k(  376) = (   0.4176667   0.4817026   0.0313257), wk =   0.0030864
        k(  377) = (   0.4176667   0.4817026   0.0939771), wk =   0.0030864
        k(  378) = (   0.4176667   0.4817026   0.1566284), wk =   0.0030864
        k(  379) = (   0.4176667   0.5779276   0.0313257), wk =   0.0030864
        k(  380) = (   0.4176667   0.5779276   0.0939771), wk =   0.0030864
        k(  381) = (   0.4176667   0.5779276   0.1566284), wk =   0.0030864
        k(  382) = (   0.4176667   0.6741527   0.0313257), wk =   0.0030864
        k(  383) = (   0.4176667   0.6741527   0.0939771), wk =   0.0030864
        k(  384) = (   0.4176667   0.6741527   0.1566284), wk =   0.0030864
        k(  385) = (   0.4176667   0.7703777   0.0313257), wk =   0.0030864
        k(  386) = (   0.4176667   0.7703777   0.0939771), wk =   0.0030864
        k(  387) = (   0.4176667   0.7703777   0.1566284), wk =   0.0030864
        k(  388) = (   0.4176667   0.8666028   0.0313257), wk =   0.0030864
        k(  389) = (   0.4176667   0.8666028   0.0939771), wk =   0.0030864
        k(  390) = (   0.4176667   0.8666028   0.1566284), wk =   0.0030864
        k(  391) = (   0.4176667   1.2515029   0.0313257), wk =   0.0030864
        k(  392) = (   0.4176667   1.2515029   0.0939771), wk =   0.0030864
        k(  393) = (   0.4176667   1.2515029   0.1566284), wk =   0.0030864
        k(  394) = (   0.4176667   1.3477280   0.0313257), wk =   0.0030864
        k(  395) = (   0.4176667   1.3477280   0.0939771), wk =   0.0030864
        k(  396) = (   0.4176667   1.3477280   0.1566284), wk =   0.0030864
        k(  397) = (   0.4593333   0.2651962   0.0313257), wk =   0.0015432
        k(  398) = (   0.4593333   0.2651962   0.0939771), wk =   0.0015432
        k(  399) = (   0.4593333   0.2651962   0.1566284), wk =   0.0015432
        k(  400) = (   0.4593333   0.7944340   0.0313257), wk =   0.0030864
        k(  401) = (   0.4593333   0.7944340   0.0939771), wk =   0.0030864
        k(  402) = (   0.4593333   0.7944340   0.1566284), wk =   0.0030864
        k(  403) = (   0.4593333   0.8906590   0.0313257), wk =   0.0030864
        k(  404) = (   0.4593333   0.8906590   0.0939771), wk =   0.0030864
        k(  405) = (   0.4593333   0.8906590   0.1566284), wk =   0.0030864
        k(  406) = (   0.5010000   0.3373650   0.0313257), wk =   0.0030864
        k(  407) = (   0.5010000   0.3373650   0.0939771), wk =   0.0030864
        k(  408) = (   0.5010000   0.3373650   0.1566284), wk =   0.0030864
        k(  409) = (   0.5010000   0.4335901   0.0313257), wk =   0.0030864
        k(  410) = (   0.5010000   0.4335901   0.0939771), wk =   0.0030864
        k(  411) = (   0.5010000   0.4335901   0.1566284), wk =   0.0030864
        k(  412) = (   0.5010000   0.5298151   0.0313257), wk =   0.0030864
        k(  413) = (   0.5010000   0.5298151   0.0939771), wk =   0.0030864
        k(  414) = (   0.5010000   0.5298151   0.1566284), wk =   0.0030864
        k(  415) = (   0.5010000   0.6260401   0.0313257), wk =   0.0030864
        k(  416) = (   0.5010000   0.6260401   0.0939771), wk =   0.0030864
        k(  417) = (   0.5010000   0.6260401   0.1566284), wk =   0.0030864
        k(  418) = (   0.5010000   0.7222652   0.0313257), wk =   0.0030864
        k(  419) = (   0.5010000   0.7222652   0.0939771), wk =   0.0030864
        k(  420) = (   0.5010000   0.7222652   0.1566284), wk =   0.0030864
        k(  421) = (   0.5010000   0.8184902   0.0313257), wk =   0.0030864
        k(  422) = (   0.5010000   0.8184902   0.0939771), wk =   0.0030864
        k(  423) = (   0.5010000   0.8184902   0.1566284), wk =   0.0030864
        k(  424) = (   0.5010000   1.2033904   0.0313257), wk =   0.0030864
        k(  425) = (   0.5010000   1.2033904   0.0939771), wk =   0.0030864
        k(  426) = (   0.5010000   1.2033904   0.1566284), wk =   0.0030864
        k(  427) = (   0.5010000   1.2996155   0.0313257), wk =   0.0030864
        k(  428) = (   0.5010000   1.2996155   0.0939771), wk =   0.0030864
        k(  429) = (   0.5010000   1.2996155   0.1566284), wk =   0.0030864
        k(  430) = (   0.5010000   1.3958405   0.0313257), wk =   0.0030864
        k(  431) = (   0.5010000   1.3958405   0.0939771), wk =   0.0030864
        k(  432) = (   0.5010000   1.3958405   0.1566284), wk =   0.0030864
        k(  433) = (   0.5426667   0.3133087   0.0313257), wk =   0.0015432
        k(  434) = (   0.5426667   0.3133087   0.0939771), wk =   0.0015432
        k(  435) = (   0.5426667   0.3133087   0.1566284), wk =   0.0015432
        k(  436) = (   0.5426667   1.3717842   0.0313257), wk =   0.0030864
        k(  437) = (   0.5426667   1.3717842   0.0939771), wk =   0.0030864
        k(  438) = (   0.5426667   1.3717842   0.1566284), wk =   0.0030864
        k(  439) = (   0.5843333   0.3854775   0.0313257), wk =   0.0030864
        k(  440) = (   0.5843333   0.3854775   0.0939771), wk =   0.0030864
        k(  441) = (   0.5843333   0.3854775   0.1566284), wk =   0.0030864
        k(  442) = (   0.5843333   0.4817026   0.0313257), wk =   0.0030864
        k(  443) = (   0.5843333   0.4817026   0.0939771), wk =   0.0030864
        k(  444) = (   0.5843333   0.4817026   0.1566284), wk =   0.0030864
        k(  445) = (   0.5843333   0.5779276   0.0313257), wk =   0.0030864
        k(  446) = (   0.5843333   0.5779276   0.0939771), wk =   0.0030864
        k(  447) = (   0.5843333   0.5779276   0.1566284), wk =   0.0030864
        k(  448) = (   0.5843333   0.6741527   0.0313257), wk =   0.0030864
        k(  449) = (   0.5843333   0.6741527   0.0939771), wk =   0.0030864
        k(  450) = (   0.5843333   0.6741527   0.1566284), wk =   0.0030864
        k(  451) = (   0.5843333   0.7703777   0.0313257), wk =   0.0030864
        k(  452) = (   0.5843333   0.7703777   0.0939771), wk =   0.0030864
        k(  453) = (   0.5843333   0.7703777   0.1566284), wk =   0.0030864
        k(  454) = (   0.5843333   1.2515029   0.0313257), wk =   0.0030864
        k(  455) = (   0.5843333   1.2515029   0.0939771), wk =   0.0030864
        k(  456) = (   0.5843333   1.2515029   0.1566284), wk =   0.0030864
        k(  457) = (   0.5843333   1.3477280   0.0313257), wk =   0.0030864
        k(  458) = (   0.5843333   1.3477280   0.0939771), wk =   0.0030864
        k(  459) = (   0.5843333   1.3477280   0.1566284), wk =   0.0030864
        k(  460) = (   0.5843333   1.4439530   0.0313257), wk =   0.0030864
        k(  461) = (   0.5843333   1.4439530   0.0939771), wk =   0.0030864
        k(  462) = (   0.5843333   1.4439530   0.1566284), wk =   0.0030864
        k(  463) = (   0.6260000   0.3614213   0.0313257), wk =   0.0015432
        k(  464) = (   0.6260000   0.3614213   0.0939771), wk =   0.0015432
        k(  465) = (   0.6260000   0.3614213   0.1566284), wk =   0.0015432
        k(  466) = (   0.6260000   1.2274467   0.0313257), wk =   0.0030864
        k(  467) = (   0.6260000   1.2274467   0.0939771), wk =   0.0030864
        k(  468) = (   0.6260000   1.2274467   0.1566284), wk =   0.0030864
        k(  469) = (   0.6260000   1.3236717   0.0313257), wk =   0.0030864
        k(  470) = (   0.6260000   1.3236717   0.0939771), wk =   0.0030864
        k(  471) = (   0.6260000   1.3236717   0.1566284), wk =   0.0030864
        k(  472) = (   0.6260000   1.4198968   0.0313257), wk =   0.0030864
        k(  473) = (   0.6260000   1.4198968   0.0939771), wk =   0.0030864
        k(  474) = (   0.6260000   1.4198968   0.1566284), wk =   0.0030864
        k(  475) = (   0.6676667   0.4335901   0.0313257), wk =   0.0030864
        k(  476) = (   0.6676667   0.4335901   0.0939771), wk =   0.0030864
        k(  477) = (   0.6676667   0.4335901   0.1566284), wk =   0.0030864
        k(  478) = (   0.6676667   0.5298151   0.0313257), wk =   0.0030864
        k(  479) = (   0.6676667   0.5298151   0.0939771), wk =   0.0030864
        k(  480) = (   0.6676667   0.5298151   0.1566284), wk =   0.0030864
        k(  481) = (   0.6676667   0.6260401   0.0313257), wk =   0.0030864
        k(  482) = (   0.6676667   0.6260401   0.0939771), wk =   0.0030864
        k(  483) = (   0.6676667   0.6260401   0.1566284), wk =   0.0030864
        k(  484) = (   0.6676667   0.7222652   0.0313257), wk =   0.0030864
        k(  485) = (   0.6676667   0.7222652   0.0939771), wk =   0.0030864
        k(  486) = (   0.6676667   0.7222652   0.1566284), wk =   0.0030864
        k(  487) = (   0.6676667   1.2033904   0.0313257), wk =   0.0030864
        k(  488) = (   0.6676667   1.2033904   0.0939771), wk =   0.0030864
        k(  489) = (   0.6676667   1.2033904   0.1566284), wk =   0.0030864
        k(  490) = (   0.6676667   1.2996155   0.0313257), wk =   0.0030864
        k(  491) = (   0.6676667   1.2996155   0.0939771), wk =   0.0030864
        k(  492) = (   0.6676667   1.2996155   0.1566284), wk =   0.0030864
        k(  493) = (   0.6676667   1.3958405   0.0313257), wk =   0.0030864
        k(  494) = (   0.6676667   1.3958405   0.0939771), wk =   0.0030864
        k(  495) = (   0.6676667   1.3958405   0.1566284), wk =   0.0030864
        k(  496) = (   0.6676667   1.4920655   0.0313257), wk =   0.0030864
        k(  497) = (   0.6676667   1.4920655   0.0939771), wk =   0.0030864
        k(  498) = (   0.6676667   1.4920655   0.1566284), wk =   0.0030864
        k(  499) = (   0.7093333   0.4095338   0.0313257), wk =   0.0015432
        k(  500) = (   0.7093333   0.4095338   0.0939771), wk =   0.0015432
        k(  501) = (   0.7093333   0.4095338   0.1566284), wk =   0.0015432
        k(  502) = (   0.7093333   1.0831091   0.0313257), wk =   0.0030864
        k(  503) = (   0.7093333   1.0831091   0.0939771), wk =   0.0030864
        k(  504) = (   0.7093333   1.0831091   0.1566284), wk =   0.0030864
        k(  505) = (   0.7093333   1.1793342   0.0313257), wk =   0.0030864
        k(  506) = (   0.7093333   1.1793342   0.0939771), wk =   0.0030864
        k(  507) = (   0.7093333   1.1793342   0.1566284), wk =   0.0030864
        k(  508) = (   0.7093333   1.2755592   0.0313257), wk =   0.0030864
        k(  509) = (   0.7093333   1.2755592   0.0939771), wk =   0.0030864
        k(  510) = (   0.7093333   1.2755592   0.1566284), wk =   0.0030864
        k(  511) = (   0.7093333   1.3717842   0.0313257), wk =   0.0030864
        k(  512) = (   0.7093333   1.3717842   0.0939771), wk =   0.0030864
        k(  513) = (   0.7093333   1.3717842   0.1566284), wk =   0.0030864
        k(  514) = (   0.7093333   1.4680093   0.0313257), wk =   0.0030864
        k(  515) = (   0.7093333   1.4680093   0.0939771), wk =   0.0030864
        k(  516) = (   0.7093333   1.4680093   0.1566284), wk =   0.0030864
        k(  517) = (   0.7510000   0.4817026   0.0313257), wk =   0.0030864
        k(  518) = (   0.7510000   0.4817026   0.0939771), wk =   0.0030864
        k(  519) = (   0.7510000   0.4817026   0.1566284), wk =   0.0030864
        k(  520) = (   0.7510000   0.5779276   0.0313257), wk =   0.0030864
        k(  521) = (   0.7510000   0.5779276   0.0939771), wk =   0.0030864
        k(  522) = (   0.7510000   0.5779276   0.1566284), wk =   0.0030864
        k(  523) = (   0.7510000   0.6741527   0.0313257), wk =   0.0030864
        k(  524) = (   0.7510000   0.6741527   0.0939771), wk =   0.0030864
        k(  525) = (   0.7510000   0.6741527   0.1566284), wk =   0.0030864
        k(  526) = (   0.7510000   1.2515029   0.0313257), wk =   0.0030864
        k(  527) = (   0.7510000   1.2515029   0.0939771), wk =   0.0030864
        k(  528) = (   0.7510000   1.2515029   0.1566284), wk =   0.0030864
        k(  529) = (   0.7510000   1.3477280   0.0313257), wk =   0.0030864
        k(  530) = (   0.7510000   1.3477280   0.0939771), wk =   0.0030864
        k(  531) = (   0.7510000   1.3477280   0.1566284), wk =   0.0030864
        k(  532) = (   0.7510000   1.4439530   0.0313257), wk =   0.0030864
        k(  533) = (   0.7510000   1.4439530   0.0939771), wk =   0.0030864
        k(  534) = (   0.7510000   1.4439530   0.1566284), wk =   0.0030864
        k(  535) = (   0.7510000   1.5401781   0.0313257), wk =   0.0030864
        k(  536) = (   0.7510000   1.5401781   0.0939771), wk =   0.0030864
        k(  537) = (   0.7510000   1.5401781   0.1566284), wk =   0.0030864
        k(  538) = (   0.7926667   0.4576463   0.0313257), wk =   0.0015432
        k(  539) = (   0.7926667   0.4576463   0.0939771), wk =   0.0015432
        k(  540) = (   0.7926667   0.4576463   0.1566284), wk =   0.0015432
        k(  541) = (   0.7926667   0.9387715   0.0313257), wk =   0.0030864
        k(  542) = (   0.7926667   0.9387715   0.0939771), wk =   0.0030864
        k(  543) = (   0.7926667   0.9387715   0.1566284), wk =   0.0030864
        k(  544) = (   0.7926667   1.0349966   0.0313257), wk =   0.0030864
        k(  545) = (   0.7926667   1.0349966   0.0939771), wk =   0.0030864
        k(  546) = (   0.7926667   1.0349966   0.1566284), wk =   0.0030864
        k(  547) = (   0.7926667   1.1312216   0.0313257), wk =   0.0030864
        k(  548) = (   0.7926667   1.1312216   0.0939771), wk =   0.0030864
        k(  549) = (   0.7926667   1.1312216   0.1566284), wk =   0.0030864
        k(  550) = (   0.7926667   1.2274467   0.0313257), wk =   0.0030864
        k(  551) = (   0.7926667   1.2274467   0.0939771), wk =   0.0030864
        k(  552) = (   0.7926667   1.2274467   0.1566284), wk =   0.0030864
        k(  553) = (   0.7926667   1.3236717   0.0313257), wk =   0.0030864
        k(  554) = (   0.7926667   1.3236717   0.0939771), wk =   0.0030864
        k(  555) = (   0.7926667   1.3236717   0.1566284), wk =   0.0030864
        k(  556) = (   0.7926667   1.4198968   0.0313257), wk =   0.0030864
        k(  557) = (   0.7926667   1.4198968   0.0939771), wk =   0.0030864
        k(  558) = (   0.7926667   1.4198968   0.1566284), wk =   0.0030864
        k(  559) = (   0.7926667   1.5161218   0.0313257), wk =   0.0030864
        k(  560) = (   0.7926667   1.5161218   0.0939771), wk =   0.0030864
        k(  561) = (   0.7926667   1.5161218   0.1566284), wk =   0.0030864
        k(  562) = (   0.8343333   0.5298151   0.0313257), wk =   0.0030864
        k(  563) = (   0.8343333   0.5298151   0.0939771), wk =   0.0030864
        k(  564) = (   0.8343333   0.5298151   0.1566284), wk =   0.0030864
        k(  565) = (   0.8343333   0.6260401   0.0313257), wk =   0.0030864
        k(  566) = (   0.8343333   0.6260401   0.0939771), wk =   0.0030864
        k(  567) = (   0.8343333   0.6260401   0.1566284), wk =   0.0030864
        k(  568) = (   0.8343333   1.2033904   0.0313257), wk =   0.0030864
        k(  569) = (   0.8343333   1.2033904   0.0939771), wk =   0.0030864
        k(  570) = (   0.8343333   1.2033904   0.1566284), wk =   0.0030864
        k(  571) = (   0.8343333   1.2996155   0.0313257), wk =   0.0030864
        k(  572) = (   0.8343333   1.2996155   0.0939771), wk =   0.0030864
        k(  573) = (   0.8343333   1.2996155   0.1566284), wk =   0.0030864
        k(  574) = (   0.8343333   1.3958405   0.0313257), wk =   0.0030864
        k(  575) = (   0.8343333   1.3958405   0.0939771), wk =   0.0030864
        k(  576) = (   0.8343333   1.3958405   0.1566284), wk =   0.0030864
        k(  577) = (   0.8343333   1.4920655   0.0313257), wk =   0.0030864
        k(  578) = (   0.8343333   1.4920655   0.0939771), wk =   0.0030864
        k(  579) = (   0.8343333   1.4920655   0.1566284), wk =   0.0030864
        k(  580) = (   0.8343333   1.5882906   0.0313257), wk =   0.0030864
        k(  581) = (   0.8343333   1.5882906   0.0939771), wk =   0.0030864
        k(  582) = (   0.8343333   1.5882906   0.1566284), wk =   0.0030864
        k(  583) = (   0.8760000   0.5057588   0.0313257), wk =   0.0015432
        k(  584) = (   0.8760000   0.5057588   0.0939771), wk =   0.0015432
        k(  585) = (   0.8760000   0.5057588   0.1566284), wk =   0.0015432
        k(  586) = (   0.8760000   0.7944340   0.0313257), wk =   0.0030864
        k(  587) = (   0.8760000   0.7944340   0.0939771), wk =   0.0030864
        k(  588) = (   0.8760000   0.7944340   0.1566284), wk =   0.0030864
        k(  589) = (   0.8760000   0.8906590   0.0313257), wk =   0.0030864
        k(  590) = (   0.8760000   0.8906590   0.0939771), wk =   0.0030864
        k(  591) = (   0.8760000   0.8906590   0.1566284), wk =   0.0030864
        k(  592) = (   0.8760000   0.9868841   0.0313257), wk =   0.0030864
        k(  593) = (   0.8760000   0.9868841   0.0939771), wk =   0.0030864
        k(  594) = (   0.8760000   0.9868841   0.1566284), wk =   0.0030864
        k(  595) = (   0.8760000   1.0831091   0.0313257), wk =   0.0030864
        k(  596) = (   0.8760000   1.0831091   0.0939771), wk =   0.0030864
        k(  597) = (   0.8760000   1.0831091   0.1566284), wk =   0.0030864
        k(  598) = (   0.8760000   1.1793341   0.0313257), wk =   0.0030864
        k(  599) = (   0.8760000   1.1793341   0.0939771), wk =   0.0030864
        k(  600) = (   0.8760000   1.1793341   0.1566284), wk =   0.0030864
        k(  601) = (   0.8760000   1.2755592   0.0313257), wk =   0.0030864
        k(  602) = (   0.8760000   1.2755592   0.0939771), wk =   0.0030864
        k(  603) = (   0.8760000   1.2755592   0.1566284), wk =   0.0030864
        k(  604) = (   0.8760000   1.3717842   0.0313257), wk =   0.0030864
        k(  605) = (   0.8760000   1.3717842   0.0939771), wk =   0.0030864
        k(  606) = (   0.8760000   1.3717842   0.1566284), wk =   0.0030864
        k(  607) = (   0.8760000   1.4680093   0.0313257), wk =   0.0030864
        k(  608) = (   0.8760000   1.4680093   0.0939771), wk =   0.0030864
        k(  609) = (   0.8760000   1.4680093   0.1566284), wk =   0.0030864
        k(  610) = (   0.8760000   1.5642343   0.0313257), wk =   0.0030864
        k(  611) = (   0.8760000   1.5642343   0.0939771), wk =   0.0030864
        k(  612) = (   0.8760000   1.5642343   0.1566284), wk =   0.0030864
        k(  613) = (   0.9176667   0.5779276   0.0313257), wk =   0.0030864
        k(  614) = (   0.9176667   0.5779276   0.0939771), wk =   0.0030864
        k(  615) = (   0.9176667   0.5779276   0.1566284), wk =   0.0030864
        k(  616) = (   0.9176667   1.2515029   0.0313257), wk =   0.0030864
        k(  617) = (   0.9176667   1.2515029   0.0939771), wk =   0.0030864
        k(  618) = (   0.9176667   1.2515029   0.1566284), wk =   0.0030864
        k(  619) = (   0.9176667   1.3477280   0.0313257), wk =   0.0030864
        k(  620) = (   0.9176667   1.3477280   0.0939771), wk =   0.0030864
        k(  621) = (   0.9176667   1.3477280   0.1566284), wk =   0.0030864
        k(  622) = (   0.9176667   1.4439530   0.0313257), wk =   0.0030864
        k(  623) = (   0.9176667   1.4439530   0.0939771), wk =   0.0030864
        k(  624) = (   0.9176667   1.4439530   0.1566284), wk =   0.0030864
        k(  625) = (   0.9176667   1.5401781   0.0313257), wk =   0.0030864
        k(  626) = (   0.9176667   1.5401781   0.0939771), wk =   0.0030864
        k(  627) = (   0.9176667   1.5401781   0.1566284), wk =   0.0030864
        k(  628) = (   0.9176667   1.6364031   0.0313257), wk =   0.0030864
        k(  629) = (   0.9176667   1.6364031   0.0939771), wk =   0.0030864
        k(  630) = (   0.9176667   1.6364031   0.1566284), wk =   0.0030864
        k(  631) = (   0.9593333   0.5538714   0.0313257), wk =   0.0015432
        k(  632) = (   0.9593333   0.5538714   0.0939771), wk =   0.0015432
        k(  633) = (   0.9593333   0.5538714   0.1566284), wk =   0.0015432
        k(  634) = (   0.9593333   0.6500964   0.0313257), wk =   0.0030864
        k(  635) = (   0.9593333   0.6500964   0.0939771), wk =   0.0030864
        k(  636) = (   0.9593333   0.6500964   0.1566284), wk =   0.0030864
        k(  637) = (   0.9593333   0.7463214   0.0313257), wk =   0.0030864
        k(  638) = (   0.9593333   0.7463214   0.0939771), wk =   0.0030864
        k(  639) = (   0.9593333   0.7463214   0.1566284), wk =   0.0030864
        k(  640) = (   0.9593333   0.8425465   0.0313257), wk =   0.0030864
        k(  641) = (   0.9593333   0.8425465   0.0939771), wk =   0.0030864
        k(  642) = (   0.9593333   0.8425465   0.1566284), wk =   0.0030864
        k(  643) = (   0.9593333   0.9387715   0.0313257), wk =   0.0030864
        k(  644) = (   0.9593333   0.9387715   0.0939771), wk =   0.0030864
        k(  645) = (   0.9593333   0.9387715   0.1566284), wk =   0.0030864
        k(  646) = (   0.9593333   1.0349966   0.0313257), wk =   0.0030864
        k(  647) = (   0.9593333   1.0349966   0.0939771), wk =   0.0030864
        k(  648) = (   0.9593333   1.0349966   0.1566284), wk =   0.0030864
        k(  649) = (   0.9593333   1.1312216   0.0313257), wk =   0.0030864
        k(  650) = (   0.9593333   1.1312216   0.0939771), wk =   0.0030864
        k(  651) = (   0.9593333   1.1312216   0.1566284), wk =   0.0030864
        k(  652) = (   0.9593333   1.2274467   0.0313257), wk =   0.0030864
        k(  653) = (   0.9593333   1.2274467   0.0939771), wk =   0.0030864
        k(  654) = (   0.9593333   1.2274467   0.1566284), wk =   0.0030864
        k(  655) = (   0.9593333   1.3236717   0.0313257), wk =   0.0030864
        k(  656) = (   0.9593333   1.3236717   0.0939771), wk =   0.0030864
        k(  657) = (   0.9593333   1.3236717   0.1566284), wk =   0.0030864
        k(  658) = (   0.9593333   1.4198968   0.0313257), wk =   0.0030864
        k(  659) = (   0.9593333   1.4198968   0.0939771), wk =   0.0030864
        k(  660) = (   0.9593333   1.4198968   0.1566284), wk =   0.0030864
        k(  661) = (   0.9593333   1.5161218   0.0313257), wk =   0.0030864
        k(  662) = (   0.9593333   1.5161218   0.0939771), wk =   0.0030864
        k(  663) = (   0.9593333   1.5161218   0.1566284), wk =   0.0030864
        k(  664) = (   0.9593333   1.6123469   0.0313257), wk =   0.0030864
        k(  665) = (   0.9593333   1.6123469   0.0939771), wk =   0.0030864
        k(  666) = (   0.9593333   1.6123469   0.1566284), wk =   0.0030864

                       cryst. coord.
        k(    1) = (   0.0010000   0.5416667   0.0833333), wk =   0.0030864
        k(    2) = (   0.0010000   0.5416667   0.2500000), wk =   0.0030864
        k(    3) = (   0.0010000   0.5416667   0.4166667), wk =   0.0030864
        k(    4) = (   0.0010000   0.6250000   0.0833333), wk =   0.0030864
        k(    5) = (   0.0010000   0.6250000   0.2500000), wk =   0.0030864
        k(    6) = (   0.0010000   0.6250000   0.4166667), wk =   0.0030864
        k(    7) = (   0.0010000   0.7083333   0.0833333), wk =   0.0030864
        k(    8) = (   0.0010000   0.7083333   0.2500000), wk =   0.0030864
        k(    9) = (   0.0010000   0.7083333   0.4166667), wk =   0.0030864
        k(   10) = (   0.0010000   0.7916667   0.0833333), wk =   0.0030864
        k(   11) = (   0.0010000   0.7916667   0.2500000), wk =   0.0030864
        k(   12) = (   0.0010000   0.7916667   0.4166667), wk =   0.0030864
        k(   13) = (   0.0010000   0.8750000   0.0833333), wk =   0.0030864
        k(   14) = (   0.0010000   0.8750000   0.2500000), wk =   0.0030864
        k(   15) = (   0.0010000   0.8750000   0.4166667), wk =   0.0030864
        k(   16) = (   0.0010000   0.9583333   0.0833333), wk =   0.0030864
        k(   17) = (   0.0010000   0.9583333   0.2500000), wk =   0.0030864
        k(   18) = (   0.0010000   0.9583333   0.4166667), wk =   0.0030864
        k(   19) = (   0.0426667   0.0000000   0.0833333), wk =   0.0015432
        k(   20) = (   0.0426667   0.0000000   0.2500000), wk =   0.0015432
        k(   21) = (   0.0426667   0.0000000   0.4166667), wk =   0.0015432
        k(   22) = (   0.0426667   0.0416667   0.0833333), wk =   0.0030864
        k(   23) = (   0.0426667   0.0416667   0.2500000), wk =   0.0030864
        k(   24) = (   0.0426667   0.0416667   0.4166667), wk =   0.0030864
        k(   25) = (   0.0426667   0.0833333   0.0833333), wk =   0.0030864
        k(   26) = (   0.0426667   0.0833333   0.2500000), wk =   0.0030864
        k(   27) = (   0.0426667   0.0833333   0.4166667), wk =   0.0030864
        k(   28) = (   0.0426667   0.1250000   0.0833333), wk =   0.0030864
        k(   29) = (   0.0426667   0.1250000   0.2500000), wk =   0.0030864
        k(   30) = (   0.0426667   0.1250000   0.4166667), wk =   0.0030864
        k(   31) = (   0.0426667   0.1666667   0.0833333), wk =   0.0030864
        k(   32) = (   0.0426667   0.1666667   0.2500000), wk =   0.0030864
        k(   33) = (   0.0426667   0.1666667   0.4166667), wk =   0.0030864
        k(   34) = (   0.0426667   0.2083333   0.0833333), wk =   0.0030864
        k(   35) = (   0.0426667   0.2083333   0.2500000), wk =   0.0030864
        k(   36) = (   0.0426667   0.2083333   0.4166667), wk =   0.0030864
        k(   37) = (   0.0426667   0.2500000   0.0833333), wk =   0.0030864
        k(   38) = (   0.0426667   0.2500000   0.2500000), wk =   0.0030864
        k(   39) = (   0.0426667   0.2500000   0.4166667), wk =   0.0030864
        k(   40) = (   0.0426667   0.2916667   0.0833333), wk =   0.0030864
        k(   41) = (   0.0426667   0.2916667   0.2500000), wk =   0.0030864
        k(   42) = (   0.0426667   0.2916667   0.4166667), wk =   0.0030864
        k(   43) = (   0.0426667   0.3333333   0.0833333), wk =   0.0030864
        k(   44) = (   0.0426667   0.3333333   0.2500000), wk =   0.0030864
        k(   45) = (   0.0426667   0.3333333   0.4166667), wk =   0.0030864
        k(   46) = (   0.0426667   0.3750000   0.0833333), wk =   0.0030864
        k(   47) = (   0.0426667   0.3750000   0.2500000), wk =   0.0030864
        k(   48) = (   0.0426667   0.3750000   0.4166667), wk =   0.0030864
        k(   49) = (   0.0426667   0.4166667   0.0833333), wk =   0.0030864
        k(   50) = (   0.0426667   0.4166667   0.2500000), wk =   0.0030864
        k(   51) = (   0.0426667   0.4166667   0.4166667), wk =   0.0030864
        k(   52) = (   0.0426667   0.4583333   0.0833333), wk =   0.0030864
        k(   53) = (   0.0426667   0.4583333   0.2500000), wk =   0.0030864
        k(   54) = (   0.0426667   0.4583333   0.4166667), wk =   0.0030864
        k(   55) = (   0.0426667   0.5000000   0.0833333), wk =   0.0030864
        k(   56) = (   0.0426667   0.5000000   0.2500000), wk =   0.0030864
        k(   57) = (   0.0426667   0.5000000   0.4166667), wk =   0.0030864
        k(   58) = (   0.0426667   0.5416667   0.0833333), wk =   0.0030864
        k(   59) = (   0.0426667   0.5416667   0.2500000), wk =   0.0030864
        k(   60) = (   0.0426667   0.5416667   0.4166667), wk =   0.0030864
        k(   61) = (   0.0426667   0.5833333   0.0833333), wk =   0.0030864
        k(   62) = (   0.0426667   0.5833333   0.2500000), wk =   0.0030864
        k(   63) = (   0.0426667   0.5833333   0.4166667), wk =   0.0030864
        k(   64) = (   0.0426667   0.6250000   0.0833333), wk =   0.0030864
        k(   65) = (   0.0426667   0.6250000   0.2500000), wk =   0.0030864
        k(   66) = (   0.0426667   0.6250000   0.4166667), wk =   0.0030864
        k(   67) = (   0.0426667   0.6666667   0.0833333), wk =   0.0030864
        k(   68) = (   0.0426667   0.6666667   0.2500000), wk =   0.0030864
        k(   69) = (   0.0426667   0.6666667   0.4166667), wk =   0.0030864
        k(   70) = (   0.0426667   0.7083333   0.0833333), wk =   0.0030864
        k(   71) = (   0.0426667   0.7083333   0.2500000), wk =   0.0030864
        k(   72) = (   0.0426667   0.7083333   0.4166667), wk =   0.0030864
        k(   73) = (   0.0426667   0.7500000   0.0833333), wk =   0.0030864
        k(   74) = (   0.0426667   0.7500000   0.2500000), wk =   0.0030864
        k(   75) = (   0.0426667   0.7500000   0.4166667), wk =   0.0030864
        k(   76) = (   0.0426667   0.7916667   0.0833333), wk =   0.0030864
        k(   77) = (   0.0426667   0.7916667   0.2500000), wk =   0.0030864
        k(   78) = (   0.0426667   0.7916667   0.4166667), wk =   0.0030864
        k(   79) = (   0.0426667   0.8333333   0.0833333), wk =   0.0030864
        k(   80) = (   0.0426667   0.8333333   0.2500000), wk =   0.0030864
        k(   81) = (   0.0426667   0.8333333   0.4166667), wk =   0.0030864
        k(   82) = (   0.0426667   0.8750000   0.0833333), wk =   0.0030864
        k(   83) = (   0.0426667   0.8750000   0.2500000), wk =   0.0030864
        k(   84) = (   0.0426667   0.8750000   0.4166667), wk =   0.0030864
        k(   85) = (   0.0426667   0.9583333   0.0833333), wk =   0.0030864
        k(   86) = (   0.0426667   0.9583333   0.2500000), wk =   0.0030864
        k(   87) = (   0.0426667   0.9583333   0.4166667), wk =   0.0030864
        k(   88) = (   0.0843333   0.0416667   0.0833333), wk =   0.0030864
        k(   89) = (   0.0843333   0.0416667   0.2500000), wk =   0.0030864
        k(   90) = (   0.0843333   0.0416667   0.4166667), wk =   0.0030864
        k(   91) = (   0.0843333   0.1250000   0.0833333), wk =   0.0030864
        k(   92) = (   0.0843333   0.1250000   0.2500000), wk =   0.0030864
        k(   93) = (   0.0843333   0.1250000   0.4166667), wk =   0.0030864
        k(   94) = (   0.0843333   0.2083333   0.0833333), wk =   0.0030864
        k(   95) = (   0.0843333   0.2083333   0.2500000), wk =   0.0030864
        k(   96) = (   0.0843333   0.2083333   0.4166667), wk =   0.0030864
        k(   97) = (   0.0843333   0.2916667   0.0833333), wk =   0.0030864
        k(   98) = (   0.0843333   0.2916667   0.2500000), wk =   0.0030864
        k(   99) = (   0.0843333   0.2916667   0.4166667), wk =   0.0030864
        k(  100) = (   0.0843333   0.3750000   0.0833333), wk =   0.0030864
        k(  101) = (   0.0843333   0.3750000   0.2500000), wk =   0.0030864
        k(  102) = (   0.0843333   0.3750000   0.4166667), wk =   0.0030864
        k(  103) = (   0.0843333   0.4583333   0.0833333), wk =   0.0030864
        k(  104) = (   0.0843333   0.4583333   0.2500000), wk =   0.0030864
        k(  105) = (   0.0843333   0.4583333   0.4166667), wk =   0.0030864
        k(  106) = (   0.0843333   0.5416667   0.0833333), wk =   0.0030864
        k(  107) = (   0.0843333   0.5416667   0.2500000), wk =   0.0030864
        k(  108) = (   0.0843333   0.5416667   0.4166667), wk =   0.0030864
        k(  109) = (   0.0843333   0.6250000   0.0833333), wk =   0.0030864
        k(  110) = (   0.0843333   0.6250000   0.2500000), wk =   0.0030864
        k(  111) = (   0.0843333   0.6250000   0.4166667), wk =   0.0030864
        k(  112) = (   0.0843333   0.7083333   0.0833333), wk =   0.0030864
        k(  113) = (   0.0843333   0.7083333   0.2500000), wk =   0.0030864
        k(  114) = (   0.0843333   0.7083333   0.4166667), wk =   0.0030864
        k(  115) = (   0.0843333   0.7916667   0.0833333), wk =   0.0030864
        k(  116) = (   0.0843333   0.7916667   0.2500000), wk =   0.0030864
        k(  117) = (   0.0843333   0.7916667   0.4166667), wk =   0.0030864
        k(  118) = (   0.0843333   0.8750000   0.0833333), wk =   0.0030864
        k(  119) = (   0.0843333   0.8750000   0.2500000), wk =   0.0030864
        k(  120) = (   0.0843333   0.8750000   0.4166667), wk =   0.0030864
        k(  121) = (   0.1260000   0.0000000   0.0833333), wk =   0.0015432
        k(  122) = (   0.1260000   0.0000000   0.2500000), wk =   0.0015432
        k(  123) = (   0.1260000   0.0000000   0.4166667), wk =   0.0015432
        k(  124) = (   0.1260000   0.0833333   0.0833333), wk =   0.0030864
        k(  125) = (   0.1260000   0.0833333   0.2500000), wk =   0.0030864
        k(  126) = (   0.1260000   0.0833333   0.4166667), wk =   0.0030864
        k(  127) = (   0.1260000   0.1250000   0.0833333), wk =   0.0030864
        k(  128) = (   0.1260000   0.1250000   0.2500000), wk =   0.0030864
        k(  129) = (   0.1260000   0.1250000   0.4166667), wk =   0.0030864
        k(  130) = (   0.1260000   0.1666667   0.0833333), wk =   0.0030864
        k(  131) = (   0.1260000   0.1666667   0.2500000), wk =   0.0030864
        k(  132) = (   0.1260000   0.1666667   0.4166667), wk =   0.0030864
        k(  133) = (   0.1260000   0.2083333   0.0833333), wk =   0.0030864
        k(  134) = (   0.1260000   0.2083333   0.2500000), wk =   0.0030864
        k(  135) = (   0.1260000   0.2083333   0.4166667), wk =   0.0030864
        k(  136) = (   0.1260000   0.2500000   0.0833333), wk =   0.0030864
        k(  137) = (   0.1260000   0.2500000   0.2500000), wk =   0.0030864
        k(  138) = (   0.1260000   0.2500000   0.4166667), wk =   0.0030864
        k(  139) = (   0.1260000   0.2916667   0.0833333), wk =   0.0030864
        k(  140) = (   0.1260000   0.2916667   0.2500000), wk =   0.0030864
        k(  141) = (   0.1260000   0.2916667   0.4166667), wk =   0.0030864
        k(  142) = (   0.1260000   0.3333333   0.0833333), wk =   0.0030864
        k(  143) = (   0.1260000   0.3333333   0.2500000), wk =   0.0030864
        k(  144) = (   0.1260000   0.3333333   0.4166667), wk =   0.0030864
        k(  145) = (   0.1260000   0.3750000   0.0833333), wk =   0.0030864
        k(  146) = (   0.1260000   0.3750000   0.2500000), wk =   0.0030864
[...]

   -12.2553 -12.1835  -0.1562   0.1801   0.3259   0.5183   1.7904   1.8038

          k = 0.7927 0.9388 0.0313 (  2423 PWs)   bands (ev):

   -10.8559 -10.6562  -2.2670  -2.2628  -0.5393  -0.4880   1.4018   3.0262

          k = 0.7927 0.9388 0.0940 (  2419 PWs)   bands (ev):

   -10.8300 -10.6839  -2.2682  -2.2655  -0.5344  -0.4973   1.5995   2.7823

          k = 0.7927 0.9388 0.1566 (  2410 PWs)   bands (ev):

   -10.7846 -10.7310  -2.2692  -2.2683  -0.5247  -0.5113   1.9531   2.3836

          k = 0.7927 1.0350 0.0313 (  2410 PWs)   bands (ev):

   -10.0794  -9.9388  -3.3436  -3.2836  -1.2935  -1.2342   2.6200   3.8918

          k = 0.7927 1.0350 0.0940 (  2407 PWs)   bands (ev):

   -10.0609  -9.9580  -3.3372  -3.2933  -1.2876  -1.2441   2.7854   3.7178

          k = 0.7927 1.0350 0.1566 (  2408 PWs)   bands (ev):

   -10.0286  -9.9910  -3.3249  -3.3089  -1.2757  -1.2597   3.0759   3.4177

          k = 0.7927 1.1312 0.0313 (  2405 PWs)   bands (ev):

    -9.5775  -9.5168  -3.9905  -3.9037  -1.6067  -1.5377   3.5462   4.3037

          k = 0.7927 1.1312 0.0940 (  2406 PWs)   bands (ev):

    -9.5693  -9.5248  -3.9808  -3.9173  -1.5993  -1.5487   3.6645   4.2263

          k = 0.7927 1.1312 0.1566 (  2410 PWs)   bands (ev):

    -9.5551  -9.5388  -3.9626  -3.9393  -1.5850  -1.5665   3.8609   4.0693

          k = 0.7927 1.2274 0.0313 (  2408 PWs)   bands (ev):

    -9.7716  -9.6704  -3.7498  -3.6720  -1.5002  -1.4347   3.1628   4.1783

          k = 0.7927 1.2274 0.0940 (  2409 PWs)   bands (ev):

    -9.7581  -9.6841  -3.7412  -3.6842  -1.4933  -1.4453   3.3051   4.0538

          k = 0.7927 1.2274 0.1566 (  2409 PWs)   bands (ev):

    -9.7347  -9.7076  -3.7249  -3.7041  -1.4799  -1.4623   3.5496   3.8256

          k = 0.7927 1.3237 0.0313 (  2418 PWs)   bands (ev):

   -10.4679 -10.2937  -2.8103  -2.7777  -0.9620  -0.9088   1.9931   3.4719

          k = 0.7927 1.3237 0.0940 (  2415 PWs)   bands (ev):

   -10.4452 -10.3176  -2.8076  -2.7837  -0.9570  -0.9181   2.1773   3.2568

          k = 0.7927 1.3237 0.1566 (  2409 PWs)   bands (ev):

   -10.4054 -10.3587  -2.8016  -2.7929  -0.9466  -0.9325   2.5045   2.8986

          k = 0.7927 1.4199 0.0313 (  2420 PWs)   bands (ev):

   -11.2495 -11.0285  -1.7272  -1.7030  -0.0068   0.0468   0.8230   2.5617

          k = 0.7927 1.4199 0.0940 (  2420 PWs)   bands (ev):

   -11.2210 -11.0594  -1.7270  -1.7088  -0.0018   0.0364   1.0329   2.2953

          k = 0.7927 1.4199 0.1566 (  2410 PWs)   bands (ev):

   -11.1709 -11.1118  -1.7240  -1.7171   0.0083   0.0220   1.4072   1.8656

          k = 0.7927 1.5161 0.0313 (  2424 PWs)   bands (ev):

   -11.9062 -11.6555  -0.7110  -0.6609  -0.1137   1.0780   1.1320   1.7732

          k = 0.7927 1.5161 0.0940 (  2414 PWs)   bands (ev):

   -11.8740 -11.6906  -0.7155  -0.6731   0.1136   1.0836   1.1234   1.4812

          k = 0.7927 1.5161 0.1566 (  2414 PWs)   bands (ev):

   -11.8174 -11.7503  -0.7089  -0.6919   0.5107   0.9840   1.1075   1.1305

          k = 0.8343 0.5298 0.0313 (  2410 PWs)   bands (ev):

   -12.7434 -12.4605  -1.2816   0.7500   1.4636   1.4955   2.2476   2.2911

          k = 0.8343 0.5298 0.0940 (  2425 PWs)   bands (ev):

   -12.7076 -12.5006  -1.0557   0.4079   1.4715   1.5008   2.2534   2.2852

          k = 0.8343 0.5298 0.1566 (  2428 PWs)   bands (ev):

   -12.6440 -12.5683  -0.6406  -0.1119   1.4840   1.4960   2.2634   2.2751

          k = 0.8343 0.6260 0.0313 (  2410 PWs)   bands (ev):

   -12.7418 -12.4590  -1.2794   0.7519   1.4572   1.4893   2.2465   2.2901

          k = 0.8343 0.6260 0.0940 (  2425 PWs)   bands (ev):

   -12.7060 -12.4990  -1.0536   0.4099   1.4651   1.4947   2.2523   2.2842

          k = 0.8343 0.6260 0.1566 (  2426 PWs)   bands (ev):

   -12.6424 -12.5667  -0.6385  -0.1099   1.4777   1.4899   2.2624   2.2741

          k = 0.8343 1.2034 0.0313 (  2412 PWs)   bands (ev):

    -9.7818  -9.6938  -4.0339  -3.9570  -1.0396  -0.9686   3.1607   4.1370

          k = 0.8343 1.2034 0.0940 (  2406 PWs)   bands (ev):

    -9.7699  -9.7056  -4.0259  -3.9696  -1.0314  -0.9793   3.2993   4.0201

          k = 0.8343 1.2034 0.1566 (  2413 PWs)   bands (ev):

    -9.7495  -9.7261  -4.0103  -3.9897  -1.0163  -0.9971   3.5364   3.8026

          k = 0.8343 1.2996 0.0313 (  2413 PWs)   bands (ev):

   -10.4323 -10.2633  -3.0898  -3.0255  -0.6963  -0.6318   2.0529   3.5064

          k = 0.8343 1.2996 0.0940 (  2409 PWs)   bands (ev):

   -10.4102 -10.2865  -3.0834  -3.0361  -0.6893  -0.6420   2.2346   3.2964

          k = 0.8343 1.2996 0.1566 (  2409 PWs)   bands (ev):

   -10.3716 -10.3263  -3.0704  -3.0530  -0.6759  -0.6586   2.5573   2.9450

          k = 0.8343 1.3958 0.0313 (  2420 PWs)   bands (ev):

   -11.2489 -11.0279  -1.7315  -1.7062  -0.0039   0.0498   0.8239   2.5624

          k = 0.8343 1.3958 0.0940 (  2419 PWs)   bands (ev):

   -11.2204 -11.0588  -1.7311  -1.7122   0.0010   0.0394   1.0338   2.2961

          k = 0.8343 1.3958 0.1566 (  2410 PWs)   bands (ev):

   -11.1703 -11.1111  -1.7279  -1.7208   0.0112   0.0249   1.4081   1.8664

          k = 0.8343 1.4921 0.0313 (  2420 PWs)   bands (ev):

   -11.9669 -11.7135  -0.4364  -0.4080  -0.1958   0.9743   1.0248   1.7002

          k = 0.8343 1.4921 0.0940 (  2417 PWs)   bands (ev):

   -11.9345 -11.7491  -0.4507  -0.4177   0.0386   0.9758   1.0190   1.4083

          k = 0.8343 1.4921 0.1566 (  2417 PWs)   bands (ev):

   -11.8773 -11.8095  -0.4467  -0.4326   0.4331   0.8894   1.0110   1.0368

          k = 0.8343 1.5883 0.0313 (  2409 PWs)   bands (ev):

   -12.4796 -12.2063  -0.9180   0.6618   0.6955   1.0799   1.8782   1.9263

          k = 0.8343 1.5883 0.0940 (  2416 PWs)   bands (ev):

   -12.4449 -12.2449  -0.6995   0.6006   0.6769   0.8435   1.8848   1.9200

          k = 0.8343 1.5883 0.1566 (  2418 PWs)   bands (ev):

   -12.3833 -12.3102  -0.3005   0.1960   0.6990   0.7346   1.8958   1.9089

          k = 0.8760 0.5058 0.0313 (  2418 PWs)   bands (ev):

   -12.8772 -12.5897  -1.4653   0.5872   1.8828   1.9153   2.4845   2.5273

          k = 0.8760 0.5058 0.0940 (  2418 PWs)   bands (ev):

   -12.8407 -12.6304  -1.2368   0.2446   1.8898   1.9170   2.4903   2.5216

          k = 0.8760 0.5058 0.1566 (  2431 PWs)   bands (ev):

   -12.7762 -12.6993  -0.8167  -0.2812   1.9010   1.9117   2.5002   2.5117

          k = 0.8760 0.7944 0.0313 (  2417 PWs)   bands (ev):

   -12.2769 -12.0112  -0.6373   0.2775   0.2903   1.3212   1.4237   1.4667

          k = 0.8760 0.7944 0.0940 (  2424 PWs)   bands (ev):

   -12.2430 -12.0486  -0.4296   0.2716   0.2945   1.0200   1.4315   1.4608

          k = 0.8760 0.7944 0.1566 (  2417 PWs)   bands (ev):

   -12.1831 -12.1120  -0.0701   0.2073   0.3460   0.5858   1.4407   1.4513

          k = 0.8760 0.8907 0.0313 (  2419 PWs)   bands (ev):

   -11.5899 -11.3529  -1.2407  -1.1985   0.3318   0.5465   0.6022   2.1544

          k = 0.8760 0.8907 0.0940 (  2411 PWs)   bands (ev):

   -11.5595 -11.3861  -1.2400  -1.2078   0.5109   0.5633   0.6204   1.8724

          k = 0.8760 0.8907 0.1566 (  2415 PWs)   bands (ev):

   -11.5059 -11.4424  -1.2341  -1.2218   0.5570   0.5709   0.9501   1.4226

          k = 0.8760 0.9869 0.0313 (  2422 PWs)   bands (ev):

   -10.7630 -10.5719  -2.8016  -2.7307  -0.1137  -0.0495   1.5462   3.1285

          k = 0.8760 0.9869 0.0940 (  2410 PWs)   bands (ev):

   -10.7381 -10.5983  -2.7946  -2.7425  -0.1064  -0.0594   1.7395   2.8926

          k = 0.8760 0.9869 0.1566 (  2407 PWs)   bands (ev):

   -10.6946 -10.6434  -2.7805  -2.7613  -0.0928  -0.0755   2.0848   2.5049

          k = 0.8760 1.0831 0.0313 (  2415 PWs)   bands (ev):

   -10.0122  -9.8970  -3.9839  -3.9082  -0.4904  -0.4216   2.7578   3.9199

          k = 0.8760 1.0831 0.0940 (  2409 PWs)   bands (ev):

    -9.9968  -9.9126  -3.9762  -3.9208  -0.4822  -0.4317   2.9129   3.7675

          k = 0.8760 1.0831 0.1566 (  2418 PWs)   bands (ev):

    -9.9703  -9.9395  -3.9611  -3.9408  -0.4673  -0.4487   3.1836   3.4976

          k = 0.8760 1.1793 0.0313 (  2410 PWs)   bands (ev):

    -9.8070  -9.7336  -4.2612  -4.1910  -0.5651  -0.4955   3.1309   4.0789

          k = 0.8760 1.1793 0.0940 (  2409 PWs)   bands (ev):

    -9.7970  -9.7434  -4.2544  -4.2030  -0.5567  -0.5057   3.2666   3.9672

          k = 0.8760 1.1793 0.1566 (  2418 PWs)   bands (ev):

    -9.7800  -9.7604  -4.2407  -4.2219  -0.5416  -0.5229   3.4984   3.7573

          k = 0.8760 1.2756 0.0313 (  2419 PWs)   bands (ev):

   -10.3645 -10.2061  -3.4572  -3.3802  -0.3345  -0.2676   2.1676   3.5709

          k = 0.8760 1.2756 0.0940 (  2413 PWs)   bands (ev):

   -10.3438 -10.2278  -3.4493  -3.3927  -0.3267  -0.2776   2.3444   3.3707

          k = 0.8760 1.2756 0.1566 (  2416 PWs)   bands (ev):

   -10.3075 -10.2651  -3.4338  -3.4130  -0.3122  -0.2942   2.6578   3.0330

          k = 0.8760 1.3718 0.0313 (  2418 PWs)   bands (ev):

   -11.1951 -10.9777  -2.0205  -1.9625   0.1909   0.2510   0.9034   2.6249

          k = 0.8760 1.3718 0.0940 (  2411 PWs)   bands (ev):

   -11.1670 -11.0080  -2.0159  -1.9729   0.1968   0.2409   1.1111   2.3614

          k = 0.8760 1.3718 0.1566 (  2410 PWs)   bands (ev):

   -11.1177 -11.0596  -2.0051  -1.9893   0.2090   0.2252   1.4816   1.9359

          k = 0.8760 1.4680 0.0313 (  2420 PWs)   bands (ev):

   -11.9661 -11.7128  -0.4403  -0.4113  -0.1949   0.9760   1.0266   1.7011

          k = 0.8760 1.4680 0.0940 (  2417 PWs)   bands (ev):

   -11.9338 -11.7484  -0.4544  -0.4212   0.0394   0.9776   1.0207   1.4092

          k = 0.8760 1.4680 0.1566 (  2417 PWs)   bands (ev):

   -11.8766 -11.8088  -0.4504  -0.4362   0.4340   0.8908   1.0126   1.0383

          k = 0.8760 1.5642 0.0313 (  2411 PWs)   bands (ev):

   -12.5445 -12.2688  -1.0077   0.9209   0.9316   1.0221   1.8771   1.9208

          k = 0.8760 1.5642 0.0940 (  2428 PWs)   bands (ev):

   -12.5096 -12.3078  -0.7868   0.6267   0.9379   0.9894   1.8835   1.9150

          k = 0.8760 1.5642 0.1566 (  2422 PWs)   bands (ev):

   -12.4474 -12.3737  -0.3816   0.1311   0.9531   0.9713   1.8937   1.9051

          k = 0.9177 0.5779 0.0313 (  2412 PWs)   bands (ev):

   -13.0789 -12.7844  -1.7413   0.3402   2.6285   2.6570   2.8271   2.8629

          k = 0.9177 0.5779 0.0940 (  2427 PWs)   bands (ev):

   -13.0416 -12.8264  -1.5094  -0.0054   2.6332   2.6552   2.8317   2.8580

          k = 0.9177 0.5779 0.1566 (  2430 PWs)   bands (ev):

   -12.9756 -12.8969  -1.0827  -0.5388   2.6414   2.6497   2.8399   2.8495

          k = 0.9177 1.2515 0.0313 (  2415 PWs)   bands (ev):

   -10.2707 -10.1280  -3.8113  -3.7321  -0.0071   0.0578   2.3284   3.6569

          k = 0.9177 1.2515 0.0940 (  2415 PWs)   bands (ev):

   -10.2519 -10.1475  -3.8033  -3.7452   0.0009   0.0486   2.4979   3.4713

          k = 0.9177 1.2515 0.1566 (  2414 PWs)   bands (ev):

   -10.2192 -10.1809  -3.7874  -3.7661   0.0154   0.0330   2.7979   3.1543

          k = 0.9177 1.3477 0.0313 (  2419 PWs)   bands (ev):

   -11.0900 -10.8797  -2.4211  -2.3471   0.4191   0.4802   1.0597   2.7464

          k = 0.9177 1.3477 0.0940 (  2412 PWs)   bands (ev):

   -11.0628 -10.9089  -2.4142  -2.3597   0.4259   0.4710   1.2627   2.4891

          k = 0.9177 1.3477 0.1566 (  2417 PWs)   bands (ev):

   -11.0151 -10.9588  -2.3998  -2.3797   0.4392   0.4558   1.6262   2.0722

          k = 0.9177 1.4440 0.0313 (  2424 PWs)   bands (ev):

   -11.9039 -11.6534  -0.7197  -0.6692  -0.1106   1.0806   1.1347   1.7759

          k = 0.9177 1.4440 0.0940 (  2413 PWs)   bands (ev):

   -11.8718 -11.6885  -0.7240  -0.6814   0.1165   1.0863   1.1261   1.4839

          k = 0.9177 1.4440 0.1566 (  2413 PWs)   bands (ev):

   -11.8152 -11.7482  -0.7173  -0.7002   0.5136   0.9871   1.1099   1.1329

          k = 0.9177 1.5402 0.0313 (  2410 PWs)   bands (ev):

   -12.5437 -12.2680  -1.0066   0.9181   0.9284   1.0219   1.8775   1.9213

          k = 0.9177 1.5402 0.0940 (  2428 PWs)   bands (ev):

   -12.5088 -12.3071  -0.7857   0.6272   0.9342   0.9865   1.8839   1.9155

          k = 0.9177 1.5402 0.1566 (  2422 PWs)   bands (ev):

   -12.4467 -12.3729  -0.3806   0.1320   0.9496   0.9680   1.8941   1.9056

          k = 0.9177 1.6364 0.0313 (  2409 PWs)   bands (ev):

   -12.9441 -12.6543  -1.5571   0.5054   2.1380   2.1646   2.5771   2.6159

          k = 0.9177 1.6364 0.0940 (  2420 PWs)   bands (ev):

   -12.9074 -12.6954  -1.3273   0.1620   2.1437   2.1655   2.5822   2.6106

          k = 0.9177 1.6364 0.1566 (  2424 PWs)   bands (ev):

   -12.8423 -12.7648  -0.9048  -0.3664   2.1528   2.1614   2.5912   2.6016

          k = 0.9593 0.5539 0.0313 (  2418 PWs)   bands (ev):

   -13.1467 -12.8500  -1.8339   0.2571   2.8907   2.9240   2.9595   2.9956

          k = 0.9593 0.5539 0.0940 (  2417 PWs)   bands (ev):

   -13.1091 -12.8921  -1.6007  -0.0899   2.8953   2.9202   2.9646   2.9908

          k = 0.9593 0.5539 0.1566 (  2437 PWs)   bands (ev):

   -13.0426 -12.9633  -1.1722  -0.6259   2.9035   2.9128   2.9728   2.9824

          k = 0.9593 0.6501 0.0313 (  2412 PWs)   bands (ev):

   -13.0764 -12.7821  -1.7380   0.3433   2.6192   2.6475   2.8224   2.8582

          k = 0.9593 0.6501 0.0940 (  2426 PWs)   bands (ev):

   -13.0392 -12.8239  -1.5060  -0.0024   2.6239   2.6458   2.8269   2.8533

          k = 0.9593 0.6501 0.1566 (  2431 PWs)   bands (ev):

   -12.9731 -12.8945  -1.0794  -0.5357   2.6321   2.6404   2.8351   2.8448

          k = 0.9593 0.7463 0.0313 (  2409 PWs)   bands (ev):

   -12.7361 -12.4536  -1.2716   0.7587   1.4392   1.4716   2.2379   2.2817

          k = 0.9593 0.7463 0.0940 (  2424 PWs)   bands (ev):

   -12.7004 -12.4936  -1.0460   0.4166   1.4472   1.4771   2.2438   2.2757

          k = 0.9593 0.7463 0.1566 (  2426 PWs)   bands (ev):

   -12.6368 -12.5612  -0.6311  -0.1029   1.4599   1.4722   2.2539   2.2656

          k = 0.9593 0.8425 0.0313 (  2415 PWs)   bands (ev):

   -12.1462 -11.8858  -0.4601  -0.2386  -0.1953   1.4794   1.4948   1.5456

          k = 0.9593 0.8425 0.0940 (  2418 PWs)   bands (ev):

   -12.1130 -11.9225  -0.3427  -0.2134  -0.1261   1.1783   1.5003   1.5387

          k = 0.9593 0.8425 0.1566 (  2416 PWs)   bands (ev):

   -12.0543 -11.9845  -0.2770  -0.2399   0.2218   0.7052   1.5124   1.5264

          k = 0.9593 0.9388 0.0313 (  2419 PWs)   bands (ev):

   -11.3589 -11.1343  -2.0326  -1.9585   0.6670   0.8188   0.8766   2.4280

          k = 0.9593 0.9388 0.0940 (  2415 PWs)   bands (ev):

   -11.3300 -11.1657  -2.0264  -1.9714   0.8204   0.8638   0.8864   2.1555

          k = 0.9593 0.9388 0.1566 (  2414 PWs)   bands (ev):

   -11.2791 -11.2190  -2.0123  -1.9920   0.8379   0.8540   1.2542   1.7179

          k = 0.9593 1.0350 0.0313 (  2419 PWs)   bands (ev):

   -10.5077 -10.3429  -3.5721  -3.4893   0.3443   0.4059   1.9502   3.4024

          k = 0.9593 1.0350 0.0940 (  2419 PWs)   bands (ev):

   -10.4862 -10.3655  -3.5637  -3.5029   0.3522   0.3974   2.1304   3.1915

          k = 0.9593 1.0350 0.1566 (  2414 PWs)   bands (ev):

   -10.4484 -10.4044  -3.5471  -3.5247   0.3664   0.3829   2.4516   2.8394

          k = 0.9593 1.1312 0.0313 (  2416 PWs)   bands (ev):

    -9.9365  -9.8597  -4.4099  -4.3461   0.1326   0.1958   2.9147   3.9354

          k = 0.9593 1.1312 0.0940 (  2423 PWs)   bands (ev):

    -9.9262  -9.8699  -4.4043  -4.3576   0.1409   0.1870   3.0562   3.8095

          k = 0.9593 1.1312 0.1566 (  2411 PWs)   bands (ev):

    -9.9081  -9.8875  -4.3924  -4.3753   0.1555   0.1723   3.3008   3.5788

          k = 0.9593 1.2274 0.0313 (  2418 PWs)   bands (ev):

   -10.1601 -10.0378  -4.1038  -4.0283   0.2060   0.2686   2.5210   3.7531

          k = 0.9593 1.2274 0.0940 (  2420 PWs)   bands (ev):

   -10.1439 -10.0544  -4.0965  -4.0411   0.2142   0.2600   2.6815   3.5863

          k = 0.9593 1.2274 0.1566 (  2417 PWs)   bands (ev):

   -10.1156 -10.0829  -4.0817  -4.0614   0.2286   0.2453   2.9640   3.2961

          k = 0.9593 1.3237 0.0313 (  2419 PWs)   bands (ev):

   -10.9372 -10.7378  -2.8382  -2.7568   0.5570   0.6171   1.2889   2.9217

          k = 0.9593 1.3237 0.0940 (  2412 PWs)   bands (ev):

   -10.9114 -10.7654  -2.8303  -2.7702   0.5646   0.6088   1.4857   2.6746

          k = 0.9593 1.3237 0.1566 (  2418 PWs)   bands (ev):

   -10.8661 -10.8127  -2.8140  -2.7920   0.5783   0.5945   1.8388   2.2718

          k = 0.9593 1.4199 0.0313 (  2413 PWs)   bands (ev):

   -11.7813 -11.5362  -1.1270  -1.0639   0.0622   1.1449   1.2002   1.9230

          k = 0.9593 1.4199 0.0940 (  2419 PWs)   bands (ev):

   -11.7499 -11.5707  -1.1257  -1.0768   0.2831   1.1521   1.1921   1.6321

          k = 0.9593 1.4199 0.1566 (  2416 PWs)   bands (ev):

   -11.6945 -11.6290  -1.1157  -1.0969   0.6773   1.1413   1.1709   1.2011

          k = 0.9593 1.5161 0.0313 (  2409 PWs)   bands (ev):

   -12.4773 -12.2041  -0.9147   0.6533   0.6874   1.0827   1.8773   1.9254

          k = 0.9593 1.5161 0.0940 (  2415 PWs)   bands (ev):

   -12.4425 -12.2426  -0.6964   0.5964   0.6685   0.8424   1.8839   1.9191

          k = 0.9593 1.5161 0.1566 (  2417 PWs)   bands (ev):

   -12.3810 -12.3079  -0.2976   0.1980   0.6908   0.7274   1.8950   1.9080

          k = 0.9593 1.6123 0.0313 (  2409 PWs)   bands (ev):

   -12.9433 -12.6535  -1.5559   0.5064   2.1345   2.1613   2.5762   2.6152

          k = 0.9593 1.6123 0.0940 (  2422 PWs)   bands (ev):

   -12.9066 -12.6946  -1.3262   0.1630   2.1402   2.1622   2.5813   2.6098

          k = 0.9593 1.6123 0.1566 (  2424 PWs)   bands (ev):

   -12.8415 -12.7641  -0.9038  -0.3654   2.1494   2.1581   2.5903   2.6008

     Writing output data file BN.save/
 
     init_run     :      1.42s CPU      0.78s WALL (       1 calls)
     electrons    :     47.20s CPU     12.89s WALL (       1 calls)

     Called by init_run:
     wfcinit      :      0.18s CPU      0.06s WALL (       1 calls)
     wfcinit:atom :      0.47s CPU      0.13s WALL (      18 calls)
     wfcinit:wfcr :     11.46s CPU      2.96s WALL (      18 calls)
     potinit      :      0.20s CPU      0.07s WALL (       1 calls)
     hinit0       :      1.01s CPU      0.58s WALL (       1 calls)

     Called by electrons:
     c_bands      :     47.18s CPU     12.85s WALL (       1 calls)
     v_of_rho     :      0.04s CPU      0.01s WALL (       1 calls)
     v_h          :      0.01s CPU      0.00s WALL (       1 calls)
     v_xc         :      0.02s CPU      0.01s WALL (       1 calls)

     Called by c_bands:
     init_us_2    :      0.17s CPU      0.05s WALL (      18 calls)
     cegterg      :     21.82s CPU      5.54s WALL (      18 calls)

     Called by sum_band:

     Called by *egterg:
     h_psi        :     27.81s CPU      7.09s WALL (     278 calls)
     g_psi        :      0.52s CPU      0.05s WALL (     242 calls)
     cdiaghg      :      1.83s CPU      0.48s WALL (     260 calls)
     cegterg:over :      0.39s CPU      0.24s WALL (     242 calls)
     cegterg:upda :      0.51s CPU      0.21s WALL (     242 calls)
     cegterg:last :      0.19s CPU      0.11s WALL (      78 calls)

     Called by h_psi:
     h_psi:pot    :     27.35s CPU      7.06s WALL (     278 calls)
     h_psi:calbec :      1.59s CPU      0.23s WALL (     278 calls)
     vloc_psi     :     24.57s CPU      6.52s WALL (     278 calls)
     add_vuspsi   :      0.82s CPU      0.29s WALL (     278 calls)

     General routines
     calbec       :      1.56s CPU      0.23s WALL (     278 calls)
     fft          :      0.01s CPU      0.08s WALL (       4 calls)
     fftw         :     18.86s CPU      5.65s WALL (    6034 calls)
     davcio       :      0.14s CPU      0.05s WALL (      36 calls)
 
     Parallel routines
 
     PWSCF        :     58.23s CPU     22.52s WALL

 
   This run was terminated on:  19:35:53  26Apr2020            

=------------------------------------------------------------------------------=
   JOB DONE.
=------------------------------------------------------------------------------=
