
     Program PWSCF v.6.4.1 starts on 26Apr2020 at 20:31:33 

     This program is part of the open-source Quantum ESPRESSO suite
     for quantum simulation of materials; please cite
         "P. Giannozzi et al., J. Phys.:Condens. Matter 21 395502 (2009);
         "P. Giannozzi et al., J. Phys.:Condens. Matter 29 465901 (2017);
          URL http://www.quantum-espresso.org", 
     in publications or presentations arising from this work. More details at
     http://www.quantum-espresso.org/quote

     Parallel version (MPI & OpenMP), running on     504 processor cores
     Number of MPI processes:               126
     Threads/MPI process:                     4

     MPI processes distributed on     2 nodes
     K-points division:     npool     =     126
     Waiting for input...
     Reading input from standard input
Warning: card &IONS ignored
Warning: card / ignored
Warning: card &CELL ignored
Warning: card / ignored

     Current dimensions of program PWSCF are:
     Max number of different atomic species (ntypx) = 10
     Max number of k-points (npk) =  40000
     Max angular momentum in pseudopotentials (lmaxx) =  3

     Atomic positions and unit cell read from directory:
     ./BN.save/
 
     Message from routine readpp:
     file ./BN.save/b.cpi.UPF not found
     Message from routine readpp:
     file ./BN.save/n.cpi.UPF not found
               file b.cpi.UPF: wavefunction(s)  3d 4f renormalized
               file n.cpi.UPF: wavefunction(s)  3d 4f renormalized

     Subspace diagonalization in iterative solution of the eigenvalue problem:
     a serial algorithm will be used

 
     G-vector sticks info
     --------------------
     sticks:   dense  smooth     PW     G-vecs:    dense   smooth      PW
     Sum         433     433    151                19375    19375    3981
 


     bravais-lattice index     =            4
     lattice parameter (alat)  =       4.7319  a.u.
     unit-cell volume          =     244.0890 (a.u.)^3
     number of atoms/cell      =            4
     number of atomic types    =            2
     number of electrons       =        16.00
     number of Kohn-Sham states=          820
     kinetic-energy cutoff     =      70.0000  Ry
     charge density cutoff     =     280.0000  Ry
     Exchange-correlation      = SLA  PZ   NOGX NOGC ( 1  1  0  0 0 0)

     celldm(1)=   4.731874  celldm(2)=   0.000000  celldm(3)=   2.660224
     celldm(4)=   0.000000  celldm(5)=   0.000000  celldm(6)=   0.000000

     crystal axes: (cart. coord. in units of alat)
               a(1) = (   1.000000   0.000000   0.000000 )  
               a(2) = (  -0.500000   0.866025   0.000000 )  
               a(3) = (   0.000000   0.000000   2.660224 )  

     reciprocal axes: (cart. coord. in units 2 pi/alat)
               b(1) = (  1.000000  0.577350  0.000000 )  
               b(2) = (  0.000000  1.154701  0.000000 )  
               b(3) = (  0.000000  0.000000  0.375908 )  


     PseudoPot. # 1 for B  read from file:
     ./b.cpi.UPF
     MD5 check sum: aadced629ac320abbac2d4088521b25e
     Pseudo is Norm-conserving + core correction, Zval =  3.0
     Generated by new atomic code, or converted to UPF format
     Using radial grid of  453 points,  3 beta functions with: 
                l(1) =   0
                l(2) =   1
                l(3) =   2

     PseudoPot. # 2 for N  read from file:
     ./n.cpi.UPF
     MD5 check sum: ff6dad263d6aed986b71703111ab3f52
     Pseudo is Norm-conserving, Zval =  5.0
     Generated by new atomic code, or converted to UPF format
     Using radial grid of  467 points,  3 beta functions with: 
                l(1) =   0
                l(2) =   1
                l(3) =   2

     atomic species   valence    mass     pseudopotential
        B              3.00    10.81100     B ( 1.00)
        N              5.00    14.00700     N ( 1.00)

     24 Sym. Ops., with inversion, found (12 have fractional translation)


                                    s                        frac. trans.

      isym =  1     identity                                     

 cryst.   s( 1) = (     1          0          0      )
                  (     0          1          0      )
                  (     0          0          1      )

 cart.    s( 1) = (  1.0000000  0.0000000  0.0000000 )
                  (  0.0000000  1.0000000  0.0000000 )
                  (  0.0000000  0.0000000  1.0000000 )


      isym =  2     180 deg rotation - cart. axis [0,0,1]        

 cryst.   s( 2) = (    -1          0          0      )    f =(  0.0000000 )
                  (     0         -1          0      )       (  0.0000000 )
                  (     0          0          1      )       ( -0.5000000 )

 cart.    s( 2) = ( -1.0000000  0.0000000  0.0000000 )    f =(  0.0000000 )
                  (  0.0000000 -1.0000000  0.0000000 )       (  0.0000000 )
                  (  0.0000000  0.0000000  1.0000000 )       ( -1.3301118 )


      isym =  3     180 deg rotation - cart. axis [0,1,0]        

 cryst.   s( 3) = (    -1          0          0      )    f =(  0.0000000 )
                  (     1          1          0      )       (  0.0000000 )
                  (     0          0         -1      )       (  0.5000000 )

 cart.    s( 3) = ( -1.0000000  0.0000000  0.0000000 )    f =(  0.0000000 )
                  (  0.0000000  1.0000000  0.0000000 )       (  0.0000000 )
                  (  0.0000000  0.0000000 -1.0000000 )       (  1.3301118 )


      isym =  4     180 deg rotation - cart. axis [1,0,0]        

 cryst.   s( 4) = (     1          0          0      )
                  (    -1         -1          0      )
                  (     0          0         -1      )

 cart.    s( 4) = (  1.0000000  0.0000000  0.0000000 )
                  (  0.0000000 -1.0000000  0.0000000 )
                  (  0.0000000  0.0000000 -1.0000000 )


      isym =  5      60 deg rotation - cryst. axis [0,0,1]       

 cryst.   s( 5) = (     1          1          0      )    f =(  0.0000000 )
                  (    -1          0          0      )       (  0.0000000 )
                  (     0          0          1      )       ( -0.5000000 )

 cart.    s( 5) = (  0.5000000 -0.8660254  0.0000000 )    f =(  0.0000000 )
                  (  0.8660254  0.5000000  0.0000000 )       (  0.0000000 )
                  (  0.0000000  0.0000000  1.0000000 )       ( -1.3301118 )


      isym =  6      60 deg rotation - cryst. axis [0,0,-1]      

 cryst.   s( 6) = (     0         -1          0      )    f =( -0.0000000 )
                  (     1          1          0      )       ( -0.0000000 )
                  (     0          0          1      )       ( -0.5000000 )

 cart.    s( 6) = (  0.5000000  0.8660254  0.0000000 )    f =(  0.0000000 )
                  ( -0.8660254  0.5000000  0.0000000 )       ( -0.0000000 )
                  (  0.0000000  0.0000000  1.0000000 )       ( -1.3301118 )


      isym =  7     120 deg rotation - cryst. axis [0,0,1]       

 cryst.   s( 7) = (     0          1          0      )
                  (    -1         -1          0      )
                  (     0          0          1      )

 cart.    s( 7) = ( -0.5000000 -0.8660254  0.0000000 )
                  (  0.8660254 -0.5000000  0.0000000 )
                  (  0.0000000  0.0000000  1.0000000 )


      isym =  8     120 deg rotation - cryst. axis [0,0,-1]      

 cryst.   s( 8) = (    -1         -1          0      )
                  (     1          0          0      )
                  (     0          0          1      )

 cart.    s( 8) = ( -0.5000000  0.8660254  0.0000000 )
                  ( -0.8660254 -0.5000000  0.0000000 )
                  (  0.0000000  0.0000000  1.0000000 )


      isym =  9     180 deg rotation - cryst. axis [1,-1,0]      

 cryst.   s( 9) = (     0         -1          0      )    f =(  0.0000000 )
                  (    -1          0          0      )       (  0.0000000 )
                  (     0          0         -1      )       (  0.5000000 )

 cart.    s( 9) = (  0.5000000 -0.8660254  0.0000000 )    f =(  0.0000000 )
                  ( -0.8660254 -0.5000000  0.0000000 )       (  0.0000000 )
                  (  0.0000000  0.0000000 -1.0000000 )       (  1.3301118 )


      isym = 10     180 deg rotation - cryst. axis [2,1,0]       

 cryst.   s(10) = (     1          1          0      )    f =(  0.0000000 )
                  (     0         -1          0      )       ( -0.0000000 )
                  (     0          0         -1      )       (  0.5000000 )

 cart.    s(10) = (  0.5000000  0.8660254  0.0000000 )    f =(  0.0000000 )
                  (  0.8660254 -0.5000000  0.0000000 )       ( -0.0000000 )
                  (  0.0000000  0.0000000 -1.0000000 )       (  1.3301118 )


      isym = 11     180 deg rotation - cryst. axis [0,1,0]       

 cryst.   s(11) = (    -1         -1          0      )
                  (     0          1          0      )
                  (     0          0         -1      )

 cart.    s(11) = ( -0.5000000 -0.8660254  0.0000000 )
                  ( -0.8660254  0.5000000  0.0000000 )
                  (  0.0000000  0.0000000 -1.0000000 )


      isym = 12     180 deg rotation - cryst. axis [1,1,0]       

 cryst.   s(12) = (     0          1          0      )
                  (     1          0          0      )
                  (     0          0         -1      )

 cart.    s(12) = ( -0.5000000  0.8660254  0.0000000 )
                  (  0.8660254  0.5000000  0.0000000 )
                  (  0.0000000  0.0000000 -1.0000000 )


      isym = 13     inversion                                    

 cryst.   s(13) = (    -1          0          0      )
                  (     0         -1          0      )
                  (     0          0         -1      )

 cart.    s(13) = ( -1.0000000  0.0000000  0.0000000 )
                  (  0.0000000 -1.0000000  0.0000000 )
                  (  0.0000000  0.0000000 -1.0000000 )


      isym = 14     inv. 180 deg rotation - cart. axis [0,0,1]   

 cryst.   s(14) = (     1          0          0      )    f =(  0.0000000 )
                  (     0          1          0      )       (  0.0000000 )
                  (     0          0         -1      )       (  0.5000000 )

 cart.    s(14) = (  1.0000000  0.0000000  0.0000000 )    f =(  0.0000000 )
                  (  0.0000000  1.0000000  0.0000000 )       (  0.0000000 )
                  (  0.0000000  0.0000000 -1.0000000 )       (  1.3301118 )


      isym = 15     inv. 180 deg rotation - cart. axis [0,1,0]   

 cryst.   s(15) = (     1          0          0      )    f =(  0.0000000 )
                  (    -1         -1          0      )       (  0.0000000 )
                  (     0          0          1      )       ( -0.5000000 )

 cart.    s(15) = (  1.0000000  0.0000000  0.0000000 )    f =(  0.0000000 )
                  (  0.0000000 -1.0000000  0.0000000 )       (  0.0000000 )
                  (  0.0000000  0.0000000  1.0000000 )       ( -1.3301118 )


      isym = 16     inv. 180 deg rotation - cart. axis [1,0,0]   

 cryst.   s(16) = (    -1          0          0      )
                  (     1          1          0      )
                  (     0          0          1      )

 cart.    s(16) = ( -1.0000000  0.0000000  0.0000000 )
                  (  0.0000000  1.0000000  0.0000000 )
                  (  0.0000000  0.0000000  1.0000000 )


      isym = 17     inv.  60 deg rotation - cryst. axis [0,0,1]  

 cryst.   s(17) = (    -1         -1          0      )    f =(  0.0000000 )
                  (     1          0          0      )       (  0.0000000 )
                  (     0          0         -1      )       (  0.5000000 )

 cart.    s(17) = ( -0.5000000  0.8660254  0.0000000 )    f =(  0.0000000 )
                  ( -0.8660254 -0.5000000  0.0000000 )       (  0.0000000 )
                  (  0.0000000  0.0000000 -1.0000000 )       (  1.3301118 )


      isym = 18     inv.  60 deg rotation - cryst. axis [0,0,-1] 

 cryst.   s(18) = (     0          1          0      )    f =(  0.0000000 )
                  (    -1         -1          0      )       ( -0.0000000 )
                  (     0          0         -1      )       (  0.5000000 )

 cart.    s(18) = ( -0.5000000 -0.8660254  0.0000000 )    f =(  0.0000000 )
                  (  0.8660254 -0.5000000  0.0000000 )       ( -0.0000000 )
                  (  0.0000000  0.0000000 -1.0000000 )       (  1.3301118 )


      isym = 19     inv. 120 deg rotation - cryst. axis [0,0,1]  

 cryst.   s(19) = (     0         -1          0      )
                  (     1          1          0      )
                  (     0          0         -1      )

 cart.    s(19) = (  0.5000000  0.8660254  0.0000000 )
                  ( -0.8660254  0.5000000  0.0000000 )
                  (  0.0000000  0.0000000 -1.0000000 )


      isym = 20     inv. 120 deg rotation - cryst. axis [0,0,-1] 

 cryst.   s(20) = (     1          1          0      )
                  (    -1          0          0      )
                  (     0          0         -1      )

 cart.    s(20) = (  0.5000000 -0.8660254  0.0000000 )
                  (  0.8660254  0.5000000  0.0000000 )
                  (  0.0000000  0.0000000 -1.0000000 )


      isym = 21     inv. 180 deg rotation - cryst. axis [1,-1,0] 

 cryst.   s(21) = (     0          1          0      )    f =( -0.0000000 )
                  (     1          0          0      )       (  0.0000000 )
                  (     0          0          1      )       ( -0.5000000 )

 cart.    s(21) = ( -0.5000000  0.8660254  0.0000000 )    f =( -0.0000000 )
                  (  0.8660254  0.5000000  0.0000000 )       (  0.0000000 )
                  (  0.0000000  0.0000000  1.0000000 )       ( -1.3301118 )


      isym = 22     inv. 180 deg rotation - cryst. axis [2,1,0]  

 cryst.   s(22) = (    -1         -1          0      )    f =(  0.0000000 )
                  (     0          1          0      )       ( -0.0000000 )
                  (     0          0          1      )       ( -0.5000000 )

 cart.    s(22) = ( -0.5000000 -0.8660254  0.0000000 )    f =(  0.0000000 )
                  ( -0.8660254  0.5000000  0.0000000 )       ( -0.0000000 )
                  (  0.0000000  0.0000000  1.0000000 )       ( -1.3301118 )


      isym = 23     inv. 180 deg rotation - cryst. axis [0,1,0]  

 cryst.   s(23) = (     1          1          0      )
                  (     0         -1          0      )
                  (     0          0          1      )

 cart.    s(23) = (  0.5000000  0.8660254  0.0000000 )
                  (  0.8660254 -0.5000000  0.0000000 )
                  (  0.0000000  0.0000000  1.0000000 )


      isym = 24     inv. 180 deg rotation - cryst. axis [1,1,0]  

 cryst.   s(24) = (     0         -1          0      )
                  (    -1          0          0      )
                  (     0          0          1      )

 cart.    s(24) = (  0.5000000 -0.8660254  0.0000000 )
                  ( -0.8660254 -0.5000000  0.0000000 )
                  (  0.0000000  0.0000000  1.0000000 )


     point group D_6h(6/mmm)
     there are 12 classes
     the character table:

       E     2C6   2C3   C2    3C2'  3C2'' i     2S3   2S6   s_h   3s_d  3s_v 
A_1g   1.00  1.00  1.00  1.00  1.00  1.00  1.00  1.00  1.00  1.00  1.00  1.00
A_2g   1.00  1.00  1.00  1.00 -1.00 -1.00  1.00  1.00  1.00  1.00 -1.00 -1.00
B_1g   1.00 -1.00  1.00 -1.00  1.00 -1.00  1.00 -1.00  1.00 -1.00  1.00 -1.00
B_2g   1.00 -1.00  1.00 -1.00 -1.00  1.00  1.00 -1.00  1.00 -1.00 -1.00  1.00
E_1g   2.00  1.00 -1.00 -2.00  0.00  0.00  2.00  1.00 -1.00 -2.00  0.00  0.00
E_2g   2.00 -1.00 -1.00  2.00  0.00  0.00  2.00 -1.00 -1.00  2.00  0.00  0.00
A_1u   1.00  1.00  1.00  1.00  1.00  1.00 -1.00 -1.00 -1.00 -1.00 -1.00 -1.00
A_2u   1.00  1.00  1.00  1.00 -1.00 -1.00 -1.00 -1.00 -1.00 -1.00  1.00  1.00
B_1u   1.00 -1.00  1.00 -1.00  1.00 -1.00 -1.00  1.00 -1.00  1.00 -1.00  1.00
B_2u   1.00 -1.00  1.00 -1.00 -1.00  1.00 -1.00  1.00 -1.00  1.00  1.00 -1.00
E_1u   2.00  1.00 -1.00 -2.00  0.00  0.00 -2.00 -1.00  1.00  2.00  0.00  0.00
E_2u   2.00 -1.00 -1.00  2.00  0.00  0.00 -2.00  1.00  1.00 -2.00  0.00  0.00

     the symmetry operations in each class and the name of the first element:

     E        1
          identity                                               
     2C6      5    6
           60 deg rotation - cryst. axis [0,0,1]                 
     2C3      7    8
          120 deg rotation - cryst. axis [0,0,1]                 
     C2       2
          180 deg rotation - cart. axis [0,0,1]                  
     3C2'     4   12   11
          180 deg rotation - cart. axis [1,0,0]                  
     3C2''    3    9   10
          180 deg rotation - cart. axis [0,1,0]                  
     i       13
          inversion                                              
     2S3     17   18
          inv.  60 deg rotation - cryst. axis [0,0,1]            
     2S6     19   20
          inv. 120 deg rotation - cryst. axis [0,0,1]            
     s_h     14
          inv. 180 deg rotation - cart. axis [0,0,1]             
     3s_d    16   24   23
          inv. 180 deg rotation - cart. axis [1,0,0]             
     3s_v    15   21   22
          inv. 180 deg rotation - cart. axis [0,1,0]             

   Cartesian axes

     site n.     atom                  positions (alat units)
         1           B   tau(   1) = (  -0.0000000   0.5773503   0.6650559  )
         2           B   tau(   2) = (   0.5000000   0.2886751   1.9951677  )
         3           N   tau(   3) = (  -0.0000000   0.5773503   1.9951677  )
         4           N   tau(   4) = (   0.5000000   0.2886751   0.6650559  )

   Crystallographic axes

     site n.     atom                  positions (cryst. coord.)
         1           B   tau(   1) = (  0.3333333  0.6666667  0.2500000  )
         2           B   tau(   2) = (  0.6666667  0.3333333  0.7500000  )
         3           N   tau(   3) = (  0.3333333  0.6666667  0.7500000  )
         4           N   tau(   4) = (  0.6666667  0.3333333  0.2500000  )

     number of k points=   126
                       cart. coord. in units 2pi/alat
        k(    1) = (   0.0416667   0.0721688   0.0313257), wk =   0.0092593
        k(    2) = (   0.0416667   0.0721688   0.0939771), wk =   0.0092593
        k(    3) = (   0.0416667   0.0721688   0.1566284), wk =   0.0092593
        k(    4) = (   0.0416667   0.1683938   0.0313257), wk =   0.0185185
        k(    5) = (   0.0416667   0.1683938   0.0939771), wk =   0.0185185
        k(    6) = (   0.0416667   0.1683938   0.1566284), wk =   0.0185185
        k(    7) = (   0.0416667   0.2646189   0.0313257), wk =   0.0185185
        k(    8) = (   0.0416667   0.2646189   0.0939771), wk =   0.0185185
        k(    9) = (   0.0416667   0.2646189   0.1566284), wk =   0.0185185
        k(   10) = (   0.0416667   0.3608439   0.0313257), wk =   0.0185185
        k(   11) = (   0.0416667   0.3608439   0.0939771), wk =   0.0185185
        k(   12) = (   0.0416667   0.3608439   0.1566284), wk =   0.0185185
        k(   13) = (   0.0416667   0.4570690   0.0313257), wk =   0.0185185
        k(   14) = (   0.0416667   0.4570690   0.0939771), wk =   0.0185185
        k(   15) = (   0.0416667   0.4570690   0.1566284), wk =   0.0185185
        k(   16) = (   0.0416667   0.5532940   0.0313257), wk =   0.0185185
        k(   17) = (   0.0416667   0.5532940   0.0939771), wk =   0.0185185
        k(   18) = (   0.0416667   0.5532940   0.1566284), wk =   0.0185185
        k(   19) = (   0.0416667   0.6495191   0.0313257), wk =   0.0185185
        k(   20) = (   0.0416667   0.6495191   0.0939771), wk =   0.0185185
        k(   21) = (   0.0416667   0.6495191   0.1566284), wk =   0.0185185
        k(   22) = (   0.0416667   0.7457441   0.0313257), wk =   0.0185185
        k(   23) = (   0.0416667   0.7457441   0.0939771), wk =   0.0185185
        k(   24) = (   0.0416667   0.7457441   0.1566284), wk =   0.0185185
        k(   25) = (   0.0416667   0.8419691   0.0313257), wk =   0.0185185
        k(   26) = (   0.0416667   0.8419691   0.0939771), wk =   0.0185185
        k(   27) = (   0.0416667   0.8419691   0.1566284), wk =   0.0185185
        k(   28) = (   0.0416667   0.9381942   0.0313257), wk =   0.0185185
        k(   29) = (   0.0416667   0.9381942   0.0939771), wk =   0.0185185
        k(   30) = (   0.0416667   0.9381942   0.1566284), wk =   0.0185185
        k(   31) = (   0.0416667   1.0344192   0.0313257), wk =   0.0185185
        k(   32) = (   0.0416667   1.0344192   0.0939771), wk =   0.0185185
        k(   33) = (   0.0416667   1.0344192   0.1566284), wk =   0.0185185
        k(   34) = (   0.0416667   1.1306443   0.0313257), wk =   0.0092593
        k(   35) = (   0.0416667   1.1306443   0.0939771), wk =   0.0092593
        k(   36) = (   0.0416667   1.1306443   0.1566284), wk =   0.0092593
        k(   37) = (   0.1250000   0.2165064   0.0313257), wk =   0.0092593
        k(   38) = (   0.1250000   0.2165064   0.0939771), wk =   0.0092593
        k(   39) = (   0.1250000   0.2165064   0.1566284), wk =   0.0092593
        k(   40) = (   0.1250000   0.3127314   0.0313257), wk =   0.0185185
        k(   41) = (   0.1250000   0.3127314   0.0939771), wk =   0.0185185
        k(   42) = (   0.1250000   0.3127314   0.1566284), wk =   0.0185185
        k(   43) = (   0.1250000   0.4089564   0.0313257), wk =   0.0185185
        k(   44) = (   0.1250000   0.4089564   0.0939771), wk =   0.0185185
        k(   45) = (   0.1250000   0.4089564   0.1566284), wk =   0.0185185
        k(   46) = (   0.1250000   0.5051815   0.0313257), wk =   0.0185185
        k(   47) = (   0.1250000   0.5051815   0.0939771), wk =   0.0185185
        k(   48) = (   0.1250000   0.5051815   0.1566284), wk =   0.0185185
        k(   49) = (   0.1250000   0.6014065   0.0313257), wk =   0.0185185
        k(   50) = (   0.1250000   0.6014065   0.0939771), wk =   0.0185185
        k(   51) = (   0.1250000   0.6014065   0.1566284), wk =   0.0185185
        k(   52) = (   0.1250000   0.6976316   0.0313257), wk =   0.0185185
        k(   53) = (   0.1250000   0.6976316   0.0939771), wk =   0.0185185
        k(   54) = (   0.1250000   0.6976316   0.1566284), wk =   0.0185185
        k(   55) = (   0.1250000   0.7938566   0.0313257), wk =   0.0185185
        k(   56) = (   0.1250000   0.7938566   0.0939771), wk =   0.0185185
        k(   57) = (   0.1250000   0.7938566   0.1566284), wk =   0.0185185
        k(   58) = (   0.1250000   0.8900817   0.0313257), wk =   0.0185185
        k(   59) = (   0.1250000   0.8900817   0.0939771), wk =   0.0185185
        k(   60) = (   0.1250000   0.8900817   0.1566284), wk =   0.0185185
        k(   61) = (   0.1250000   0.9863067   0.0313257), wk =   0.0185185
        k(   62) = (   0.1250000   0.9863067   0.0939771), wk =   0.0185185
        k(   63) = (   0.1250000   0.9863067   0.1566284), wk =   0.0185185
        k(   64) = (   0.1250000   1.0825318   0.0313257), wk =   0.0092593
        k(   65) = (   0.1250000   1.0825318   0.0939771), wk =   0.0092593
        k(   66) = (   0.1250000   1.0825318   0.1566284), wk =   0.0092593
        k(   67) = (   0.2083333   0.3608439   0.0313257), wk =   0.0092593
        k(   68) = (   0.2083333   0.3608439   0.0939771), wk =   0.0092593
        k(   69) = (   0.2083333   0.3608439   0.1566284), wk =   0.0092593
        k(   70) = (   0.2083333   0.4570690   0.0313257), wk =   0.0185185
        k(   71) = (   0.2083333   0.4570690   0.0939771), wk =   0.0185185
        k(   72) = (   0.2083333   0.4570690   0.1566284), wk =   0.0185185
        k(   73) = (   0.2083333   0.5532940   0.0313257), wk =   0.0185185
        k(   74) = (   0.2083333   0.5532940   0.0939771), wk =   0.0185185
        k(   75) = (   0.2083333   0.5532940   0.1566284), wk =   0.0185185
        k(   76) = (   0.2083333   0.6495191   0.0313257), wk =   0.0185185
        k(   77) = (   0.2083333   0.6495191   0.0939771), wk =   0.0185185
        k(   78) = (   0.2083333   0.6495191   0.1566284), wk =   0.0185185
        k(   79) = (   0.2083333   0.7457441   0.0313257), wk =   0.0185185
        k(   80) = (   0.2083333   0.7457441   0.0939771), wk =   0.0185185
        k(   81) = (   0.2083333   0.7457441   0.1566284), wk =   0.0185185
        k(   82) = (   0.2083333   0.8419691   0.0313257), wk =   0.0185185
        k(   83) = (   0.2083333   0.8419691   0.0939771), wk =   0.0185185
        k(   84) = (   0.2083333   0.8419691   0.1566284), wk =   0.0185185
        k(   85) = (   0.2083333   0.9381942   0.0313257), wk =   0.0185185
        k(   86) = (   0.2083333   0.9381942   0.0939771), wk =   0.0185185
        k(   87) = (   0.2083333   0.9381942   0.1566284), wk =   0.0185185
        k(   88) = (   0.2083333   1.0344192   0.0313257), wk =   0.0092593
        k(   89) = (   0.2083333   1.0344192   0.0939771), wk =   0.0092593
        k(   90) = (   0.2083333   1.0344192   0.1566284), wk =   0.0092593
        k(   91) = (   0.2916667   0.5051815   0.0313257), wk =   0.0092593
        k(   92) = (   0.2916667   0.5051815   0.0939771), wk =   0.0092593
        k(   93) = (   0.2916667   0.5051815   0.1566284), wk =   0.0092593
        k(   94) = (   0.2916667   0.6014065   0.0313257), wk =   0.0185185
        k(   95) = (   0.2916667   0.6014065   0.0939771), wk =   0.0185185
        k(   96) = (   0.2916667   0.6014065   0.1566284), wk =   0.0185185
        k(   97) = (   0.2916667   0.6976316   0.0313257), wk =   0.0185185
        k(   98) = (   0.2916667   0.6976316   0.0939771), wk =   0.0185185
        k(   99) = (   0.2916667   0.6976316   0.1566284), wk =   0.0185185
        k(  100) = (   0.2916667   0.7938566   0.0313257), wk =   0.0185185
        k(  101) = (   0.2916667   0.7938566   0.0939771), wk =   0.0185185
        k(  102) = (   0.2916667   0.7938566   0.1566284), wk =   0.0185185
        k(  103) = (   0.2916667   0.8900817   0.0313257), wk =   0.0185185
        k(  104) = (   0.2916667   0.8900817   0.0939771), wk =   0.0185185
        k(  105) = (   0.2916667   0.8900817   0.1566284), wk =   0.0185185
        k(  106) = (   0.2916667   0.9863067   0.0313257), wk =   0.0092593
        k(  107) = (   0.2916667   0.9863067   0.0939771), wk =   0.0092593
        k(  108) = (   0.2916667   0.9863067   0.1566284), wk =   0.0092593
        k(  109) = (   0.3750000   0.6495191   0.0313257), wk =   0.0092593
        k(  110) = (   0.3750000   0.6495191   0.0939771), wk =   0.0092593
        k(  111) = (   0.3750000   0.6495191   0.1566284), wk =   0.0092593
        k(  112) = (   0.3750000   0.7457441   0.0313257), wk =   0.0185185
        k(  113) = (   0.3750000   0.7457441   0.0939771), wk =   0.0185185
        k(  114) = (   0.3750000   0.7457441   0.1566284), wk =   0.0185185
        k(  115) = (   0.3750000   0.8419691   0.0313257), wk =   0.0185185
        k(  116) = (   0.3750000   0.8419691   0.0939771), wk =   0.0185185
        k(  117) = (   0.3750000   0.8419691   0.1566284), wk =   0.0185185
        k(  118) = (   0.3750000   0.9381942   0.0313257), wk =   0.0092593
        k(  119) = (   0.3750000   0.9381942   0.0939771), wk =   0.0092593
        k(  120) = (   0.3750000   0.9381942   0.1566284), wk =   0.0092593
        k(  121) = (   0.4583333   0.7938566   0.0313257), wk =   0.0092593
        k(  122) = (   0.4583333   0.7938566   0.0939771), wk =   0.0092593
        k(  123) = (   0.4583333   0.7938566   0.1566284), wk =   0.0092593
        k(  124) = (   0.4583333   0.8900817   0.0313257), wk =   0.0092593
        k(  125) = (   0.4583333   0.8900817   0.0939771), wk =   0.0092593
        k(  126) = (   0.4583333   0.8900817   0.1566284), wk =   0.0092593

                       cryst. coord.
        k(    1) = (   0.0416667   0.0416667   0.0833333), wk =   0.0092593
        k(    2) = (   0.0416667   0.0416667   0.2500000), wk =   0.0092593
        k(    3) = (   0.0416667   0.0416667   0.4166667), wk =   0.0092593
        k(    4) = (   0.0416667   0.1250000   0.0833333), wk =   0.0185185
        k(    5) = (   0.0416667   0.1250000   0.2500000), wk =   0.0185185
        k(    6) = (   0.0416667   0.1250000   0.4166667), wk =   0.0185185
        k(    7) = (   0.0416667   0.2083333   0.0833333), wk =   0.0185185
        k(    8) = (   0.0416667   0.2083333   0.2500000), wk =   0.0185185
        k(    9) = (   0.0416667   0.2083333   0.4166667), wk =   0.0185185
        k(   10) = (   0.0416667   0.2916667   0.0833333), wk =   0.0185185
        k(   11) = (   0.0416667   0.2916667   0.2500000), wk =   0.0185185
        k(   12) = (   0.0416667   0.2916667   0.4166667), wk =   0.0185185
        k(   13) = (   0.0416667   0.3750000   0.0833333), wk =   0.0185185
        k(   14) = (   0.0416667   0.3750000   0.2500000), wk =   0.0185185
        k(   15) = (   0.0416667   0.3750000   0.4166667), wk =   0.0185185
        k(   16) = (   0.0416667   0.4583333   0.0833333), wk =   0.0185185
        k(   17) = (   0.0416667   0.4583333   0.2500000), wk =   0.0185185
        k(   18) = (   0.0416667   0.4583333   0.4166667), wk =   0.0185185
        k(   19) = (   0.0416667   0.5416667   0.0833333), wk =   0.0185185
        k(   20) = (   0.0416667   0.5416667   0.2500000), wk =   0.0185185
        k(   21) = (   0.0416667   0.5416667   0.4166667), wk =   0.0185185
        k(   22) = (   0.0416667   0.6250000   0.0833333), wk =   0.0185185
        k(   23) = (   0.0416667   0.6250000   0.2500000), wk =   0.0185185
        k(   24) = (   0.0416667   0.6250000   0.4166667), wk =   0.0185185
        k(   25) = (   0.0416667   0.7083333   0.0833333), wk =   0.0185185
        k(   26) = (   0.0416667   0.7083333   0.2500000), wk =   0.0185185
        k(   27) = (   0.0416667   0.7083333   0.4166667), wk =   0.0185185
        k(   28) = (   0.0416667   0.7916667   0.0833333), wk =   0.0185185
        k(   29) = (   0.0416667   0.7916667   0.2500000), wk =   0.0185185
        k(   30) = (   0.0416667   0.7916667   0.4166667), wk =   0.0185185
        k(   31) = (   0.0416667   0.8750000   0.0833333), wk =   0.0185185
        k(   32) = (   0.0416667   0.8750000   0.2500000), wk =   0.0185185
        k(   33) = (   0.0416667   0.8750000   0.4166667), wk =   0.0185185
        k(   34) = (   0.0416667   0.9583333   0.0833333), wk =   0.0092593
        k(   35) = (   0.0416667   0.9583333   0.2500000), wk =   0.0092593
        k(   36) = (   0.0416667   0.9583333   0.4166667), wk =   0.0092593
        k(   37) = (   0.1250000   0.1250000   0.0833333), wk =   0.0092593
        k(   38) = (   0.1250000   0.1250000   0.2500000), wk =   0.0092593
        k(   39) = (   0.1250000   0.1250000   0.4166667), wk =   0.0092593
        k(   40) = (   0.1250000   0.2083333   0.0833333), wk =   0.0185185
        k(   41) = (   0.1250000   0.2083333   0.2500000), wk =   0.0185185
        k(   42) = (   0.1250000   0.2083333   0.4166667), wk =   0.0185185
        k(   43) = (   0.1250000   0.2916667   0.0833333), wk =   0.0185185
        k(   44) = (   0.1250000   0.2916667   0.2500000), wk =   0.0185185
        k(   45) = (   0.1250000   0.2916667   0.4166667), wk =   0.0185185
        k(   46) = (   0.1250000   0.3750000   0.0833333), wk =   0.0185185
        k(   47) = (   0.1250000   0.3750000   0.2500000), wk =   0.0185185
        k(   48) = (   0.1250000   0.3750000   0.4166667), wk =   0.0185185
        k(   49) = (   0.1250000   0.4583333   0.0833333), wk =   0.0185185
        k(   50) = (   0.1250000   0.4583333   0.2500000), wk =   0.0185185
        k(   51) = (   0.1250000   0.4583333   0.4166667), wk =   0.0185185
        k(   52) = (   0.1250000   0.5416667   0.0833333), wk =   0.0185185
        k(   53) = (   0.1250000   0.5416667   0.2500000), wk =   0.0185185
        k(   54) = (   0.1250000   0.5416667   0.4166667), wk =   0.0185185
        k(   55) = (   0.1250000   0.6250000   0.0833333), wk =   0.0185185
        k(   56) = (   0.1250000   0.6250000   0.2500000), wk =   0.0185185
        k(   57) = (   0.1250000   0.6250000   0.4166667), wk =   0.0185185
        k(   58) = (   0.1250000   0.7083333   0.0833333), wk =   0.0185185
        k(   59) = (   0.1250000   0.7083333   0.2500000), wk =   0.0185185
        k(   60) = (   0.1250000   0.7083333   0.4166667), wk =   0.0185185
        k(   61) = (   0.1250000   0.7916667   0.0833333), wk =   0.0185185
        k(   62) = (   0.1250000   0.7916667   0.2500000), wk =   0.0185185
        k(   63) = (   0.1250000   0.7916667   0.4166667), wk =   0.0185185
        k(   64) = (   0.1250000   0.8750000   0.0833333), wk =   0.0092593
        k(   65) = (   0.1250000   0.8750000   0.2500000), wk =   0.0092593
        k(   66) = (   0.1250000   0.8750000   0.4166667), wk =   0.0092593
        k(   67) = (   0.2083333   0.2083333   0.0833333), wk =   0.0092593
        k(   68) = (   0.2083333   0.2083333   0.2500000), wk =   0.0092593
        k(   69) = (   0.2083333   0.2083333   0.4166667), wk =   0.0092593
        k(   70) = (   0.2083333   0.2916667   0.0833333), wk =   0.0185185
        k(   71) = (   0.2083333   0.2916667   0.2500000), wk =   0.0185185
        k(   72) = (   0.2083333   0.2916667   0.4166667), wk =   0.0185185
        k(   73) = (   0.2083333   0.3750000   0.0833333), wk =   0.0185185
        k(   74) = (   0.2083333   0.3750000   0.2500000), wk =   0.0185185
        k(   75) = (   0.2083333   0.3750000   0.4166667), wk =   0.0185185
        k(   76) = (   0.2083333   0.4583333   0.0833333), wk =   0.0185185
        k(   77) = (   0.2083333   0.4583333   0.2500000), wk =   0.0185185
        k(   78) = (   0.2083333   0.4583333   0.4166667), wk =   0.0185185
        k(   79) = (   0.2083333   0.5416667   0.0833333), wk =   0.0185185
        k(   80) = (   0.2083333   0.5416667   0.2500000), wk =   0.0185185
        k(   81) = (   0.2083333   0.5416667   0.4166667), wk =   0.0185185
        k(   82) = (   0.2083333   0.6250000   0.0833333), wk =   0.0185185
        k(   83) = (   0.2083333   0.6250000   0.2500000), wk =   0.0185185
        k(   84) = (   0.2083333   0.6250000   0.4166667), wk =   0.0185185
        k(   85) = (   0.2083333   0.7083333   0.0833333), wk =   0.0185185
        k(   86) = (   0.2083333   0.7083333   0.2500000), wk =   0.0185185
        k(   87) = (   0.2083333   0.7083333   0.4166667), wk =   0.0185185
        k(   88) = (   0.2083333   0.7916667   0.0833333), wk =   0.0092593
        k(   89) = (   0.2083333   0.7916667   0.2500000), wk =   0.0092593
        k(   90) = (   0.2083333   0.7916667   0.4166667), wk =   0.0092593
        k(   91) = (   0.2916667   0.2916667   0.0833333), wk =   0.0092593
        k(   92) = (   0.2916667   0.2916667   0.2500000), wk =   0.0092593
        k(   93) = (   0.2916667   0.2916667   0.4166667), wk =   0.0092593
        k(   94) = (   0.2916667   0.3750000   0.0833333), wk =   0.0185185
        k(   95) = (   0.2916667   0.3750000   0.2500000), wk =   0.0185185
        k(   96) = (   0.2916667   0.3750000   0.4166667), wk =   0.0185185
        k(   97) = (   0.2916667   0.4583333   0.0833333), wk =   0.0185185
        k(   98) = (   0.2916667   0.4583333   0.2500000), wk =   0.0185185
        k(   99) = (   0.2916667   0.4583333   0.4166667), wk =   0.0185185
        k(  100) = (   0.2916667   0.5416667   0.0833333), wk =   0.0185185
        k(  101) = (   0.2916667   0.5416667   0.2500000), wk =   0.0185185
        k(  102) = (   0.2916667   0.5416667   0.4166667), wk =   0.0185185
        k(  103) = (   0.2916667   0.6250000   0.0833333), wk =   0.0185185
        k(  104) = (   0.2916667   0.6250000   0.2500000), wk =   0.0185185
        k(  105) = (   0.2916667   0.6250000   0.4166667), wk =   0.0185185
        k(  106) = (   0.2916667   0.7083333   0.0833333), wk =   0.0092593
        k(  107) = (   0.2916667   0.7083333   0.2500000), wk =   0.0092593
        k(  108) = (   0.2916667   0.7083333   0.4166667), wk =   0.0092593
        k(  109) = (   0.3750000   0.3750000   0.0833333), wk =   0.0092593
        k(  110) = (   0.3750000   0.3750000   0.2500000), wk =   0.0092593
        k(  111) = (   0.3750000   0.3750000   0.4166667), wk =   0.0092593
        k(  112) = (   0.3750000   0.4583333   0.0833333), wk =   0.0185185
        k(  113) = (   0.3750000   0.4583333   0.2500000), wk =   0.0185185
        k(  114) = (   0.3750000   0.4583333   0.4166667), wk =   0.0185185
        k(  115) = (   0.3750000   0.5416667   0.0833333), wk =   0.0185185
        k(  116) = (   0.3750000   0.5416667   0.2500000), wk =   0.0185185
        k(  117) = (   0.3750000   0.5416667   0.4166667), wk =   0.0185185
        k(  118) = (   0.3750000   0.6250000   0.0833333), wk =   0.0092593
        k(  119) = (   0.3750000   0.6250000   0.2500000), wk =   0.0092593
        k(  120) = (   0.3750000   0.6250000   0.4166667), wk =   0.0092593
        k(  121) = (   0.4583333   0.4583333   0.0833333), wk =   0.0092593
        k(  122) = (   0.4583333   0.4583333   0.2500000), wk =   0.0092593
        k(  123) = (   0.4583333   0.4583333   0.4166667), wk =   0.0092593
        k(  124) = (   0.4583333   0.5416667   0.0833333), wk =   0.0092593
        k(  125) = (   0.4583333   0.5416667   0.2500000), wk =   0.0092593
        k(  126) = (   0.4583333   0.5416667   0.4166667), wk =   0.0092593

     Dense  grid:    19375 G-vectors     FFT dimensions: (  25,  25,  72)

     Dynamical RAM for                 wfc:      30.20 MB

     Dynamical RAM for     wfc (w. buffer):      30.20 MB

     Dynamical RAM for           str. fact:       0.59 MB

     Dynamical RAM for           local pot:       0.00 MB

     Dynamical RAM for          nlocal pot:       1.33 MB

     Dynamical RAM for                qrad:       0.58 MB

     Dynamical RAM for          rho,v,vnew:       1.92 MB

     Dynamical RAM for           G-vectors:       1.26 MB

     Dynamical RAM for          h,s,v(r/c):      30.78 MB

     Dynamical RAM for          <psi|beta>:       0.45 MB

     Dynamical RAM for      wfcinit/wfcrot:      75.81 MB

     Estimated static dynamical RAM per process >      38.48 MB

     Estimated max dynamical RAM per process >     114.28 MB

     Estimated total dynamical RAM >      14.06 GB

     Check: negative core charge=   -0.000032

     The potential is recalculated from file :
     ./BN.save/charge-density

     Starting wfcs are   64 randomized atomic wfcs +  756 random wfcs

     Band Structure Calculation
     CG style diagonalization

     Computing kpt #:     1
     c_bands:  3 eigenvalues not converged
     total cpu time spent up to now is      971.0 secs

     ethr =  6.25E-13,  avg # of iterations = 60.5

     total cpu time spent up to now is      971.0 secs

     End of band structure calculation

          k = 0.0417 0.0722 0.0313 (  2412 PWs)   bands (ev):

   -13.0765 -12.7821  -1.7380   0.3432   2.6193   2.6476   2.8224   2.8582
     9.5968  14.2223  15.7645  15.8643  16.2241  16.3706  16.8411  16.9929
    19.4923  20.3871  26.6366  29.4143  30.2299  30.9661  31.1763  32.7638
    34.2891  35.6401  35.7682  36.8710  37.4788  37.8333  39.3370  40.7905
    40.8051  42.0739  42.4148  43.8644  44.7337  45.5774  46.6900  48.3252
    48.3769  49.8057  50.4218  50.7475  50.9168  53.8030  53.8644  56.8523
    56.8556  58.0890  58.5424  58.8384  59.5705  62.3372  63.2746  65.0932
    71.3268  71.5769  71.9964  72.5127  75.4622  75.5659  76.2976  76.9462
    77.1721  77.3423  78.2724  79.2481  79.5156  80.4665  81.9731  84.2757
    86.0981  87.3178  87.4424  87.7605  88.0047  89.1804  89.4871  92.6254
    92.6908  92.6933  92.9726  93.4936  95.9797  96.0042  97.1137  97.6679
    98.3816  99.3221 100.9407 101.1030 101.1977 101.8989 102.7135 103.2626
   104.3517 104.9727 105.2746 105.5899 106.5031 107.7855 107.8580 108.1434
   108.3100 108.4870 109.3075 110.3027 110.5678 110.6138 110.8568 111.6906
   112.7529 113.4670 113.5690 113.5949 114.3879 114.4766 114.8045 116.0170
   116.1151 117.0628 118.0177 118.1813 119.4533 120.3247 120.9704 121.0181
   121.2972 122.0930 122.2658 122.8317 124.5890 124.8916 125.4173 126.7727
   127.1932 128.6354 129.1178 129.4228 129.4679 130.1374 130.2289 132.0991
   132.3334 134.1526 134.4684 136.1953 136.4377 136.4877 137.1647 138.4108
   138.4265 138.5712 139.1339 139.9390 140.4075 140.6538 141.2824 141.6049
   141.8835 142.9746 143.0159 144.0778 144.1044 144.3030 144.3063 144.5706
   146.5750 146.9416 147.6590 147.8344 148.1290 148.3303 148.3804 149.0097
   149.2586 150.5980 151.4840 152.1314 152.1560 152.7467 154.4694 155.9183
   156.8749 157.2176 157.4866 158.5596 160.3168 160.9036 161.7046 162.4959
   164.2559 164.2629 166.2924 166.8045 166.9594 168.7581 169.5461 170.1576
   170.6143 171.6544 172.6693 172.7840 174.4488 175.0711 175.7257 175.8219
   177.1190 177.9987 178.3148 178.5130 179.3187 180.3225 180.9409 183.2474
   183.5335 183.6876 184.6350 184.7932 185.0953 186.8151 189.8022 190.4957
   191.0658 191.4823 191.7080 192.3929 192.7153 193.2056 194.0200 194.1318
   194.2319 195.0138 197.8088 197.8407 198.6479 199.3094 199.5503 200.4476
   200.5700 201.0472 201.0617 201.5196 201.6191 201.7752 202.6143 203.0066
   203.8545 204.5255 206.5358 206.8467 207.2659 207.3184 207.7601 208.0170
   209.0069 209.0698 209.6590 210.1101 210.1355 210.3689 211.1965 211.6241
   211.7203 214.2373 214.5129 214.7462 214.8808 215.0847 215.7055 216.0493
   217.0142 217.0907 217.1693 217.3801 218.3089 218.4099 218.6577 219.8982
   220.9160 221.1319 221.4955 221.8888 221.9005 222.3149 224.1098 224.2203
   224.6145 224.9726 226.1212 226.4560 227.8795 228.7582 228.8635 229.0280
   229.4134 229.5809 229.8278 230.6538 231.7248 231.9875 233.1851 233.3111
   233.5505 233.7236 233.7846 234.5674 235.5520 235.5780 236.0925 236.1934
   236.4148 236.6463 236.9531 236.9967 237.3462 237.6079 238.2958 238.5191
   238.7654 239.1756 239.1875 239.8604 240.0901 240.1874 240.3325 240.3330
   241.0400 241.3201 241.5615 241.7871 242.9128 242.9155 243.3223 244.0311
   244.2131 244.2512 244.9323 245.0297 245.5179 246.0619 246.4352 246.5050
   246.7370 246.9638 247.2354 248.2116 248.4145 249.0216 249.8641 251.0261
   251.0908 251.4034 251.6094 251.8132 251.9658 252.8614 253.1041 253.5829
   253.9750 254.1996 254.4985 255.0640 255.2816 255.7108 256.2207 256.5483
   257.1631 257.6014 257.7939 258.2576 258.9695 259.5146 259.6767 259.7111
   259.8894 260.8915 261.5846 261.9381 262.3995 262.6887 263.7953 263.8326
   264.2145 266.2044 266.2084 266.4124 267.5723 268.1316 269.2038 270.0875
   270.2379 270.4952 271.1298 271.3802 273.0840 273.6227 274.6022 275.2291
   275.4979 275.8549 277.1655 277.3804 277.6053 278.2590 278.4518 278.8476
   279.2679 280.2056 280.4693 280.8238 281.4046 281.6275 282.0613 282.5766
   283.1610 283.2780 283.5142 283.8076 285.1094 285.2225 285.6925 286.2297
   286.8206 287.0258 287.3484 288.6977 288.9521 289.0409 289.2990 289.4727
   289.5645 289.7889 291.3348 291.6919 292.0634 293.1358 293.1507 293.6911
   294.0956 294.1220 294.6655 294.8066 294.8258 295.4321 295.4532 295.7615
   296.8624 297.3133 297.4090 297.8386 297.9665 297.9790 298.1822 298.9727
   299.1309 299.7755 300.4269 300.6477 301.1412 301.4036 301.4137 301.6288
   301.7792 301.8222 303.2750 303.3906 303.5092 304.4775 304.7598 305.0242
   305.7895 305.9954 306.1218 306.3982 306.4610 307.7324 307.8418 308.6536
   308.8777 309.1024 309.6206 309.9514 309.9898 310.4556 311.0385 311.2858
   312.0121 312.6271 312.9648 313.6715 314.0866 314.4361 317.3239 317.4855
   317.5454 318.8788 320.1933 320.7489 321.5874 321.8361 322.1178 322.9133
   323.4305 324.1534 324.9286 325.1579 325.8411 326.6976 326.9403 327.6793
   328.1731 328.9064 329.0514 330.4022 330.4050 332.5094 333.2747 333.8072
   333.9826 334.2210 334.5533 334.6880 335.2901 335.6350 336.8799 336.9590
   337.5049 338.9743 339.8735 340.1565 340.7837 340.9359 341.0623 342.5591
   343.6943 344.0276 344.4574 344.7106 345.2696 345.7018 345.9546 346.2234
   346.3523 346.7840 347.0330 347.4077 349.1986 349.7786 349.9986 351.4927
   351.7461 351.7464 351.8656 352.3023 352.3149 352.7064 353.0357 354.0566
   354.1512 354.7254 355.4299 355.9597 356.3501 356.5900 357.6633 358.5750
   358.7616 359.4228 360.4901 361.0492 361.1124 361.5208 361.6417 362.6331
   363.6241 365.3171 365.4967 365.5169 365.8457 366.3207 367.0586 367.1376
   368.0650 368.0718 368.9389 369.1003 369.1609 369.4441 369.4935 369.9389
   370.1319 370.7827 372.4975 372.7163 373.0183 373.4884 373.4968 374.1980
   374.4851 374.5039 374.8544 374.9754 375.3431 375.7017 376.6853 376.9926
   377.1637 377.3859 377.4061 377.5321 378.8996 378.9209 379.0312 379.3274
   379.7315 380.2867 380.5201 381.1161 381.1517 382.0557 382.3591 382.5375
   384.3041 384.3923 384.5546 385.6852 386.1202 386.5853 386.7337 386.8404
   386.9924 387.5508 387.6411 387.6873 388.2350 389.5043 389.5627 389.7267
   390.2508 391.3476 391.4901 391.9366 392.1029 392.4460 392.5189 392.6373
   392.7148 392.8641 393.1447 393.2599 393.3994 393.9332 394.7756 396.1948
   396.4131 396.4531 397.0630 397.3943 397.4390 398.1707 398.3130 398.3749
   399.3201 399.5570 399.6260 399.8955 400.3489 400.5538 400.6307 401.1094
   401.6027 401.6866 401.9209 402.2198 402.8918 403.0269 404.3218 404.4253
   404.4527 404.7916 405.2958 405.4514 405.9816 405.9854 406.1688 406.2457
   406.9586 407.2751 407.5614 408.4032 408.6869 408.8005 408.9783 409.5685
   409.8524 409.8994 410.1595 410.1664 411.5564 412.3796 412.8503 413.1563
   413.2621 413.3148 413.6409 413.7305 414.7344 414.8215 414.8415 415.2033
   415.9944 416.1844 416.2575 416.5519 416.5657 416.7237 417.1847 417.4741
   417.6259 418.0747 418.5466 418.7109 419.8001 419.8025 420.0298 420.2170
   420.4806 420.6135 421.1759 421.2345 421.3828 421.6355 421.8701 421.8720
   422.6239 423.5955 423.9903 424.1072 424.6730 424.7840 424.8439 425.2234
   425.2693 425.3625 425.6557 425.7510 425.9191 425.9742 426.0629 426.3120
   426.7395 426.7888 427.3925 428.4103 428.9421 429.0037 429.0672 429.0981
   429.1630 429.2621 429.3221 429.4764 429.5665 429.6189 429.7025 429.7050
   430.0189 432.1009 432.7021 432.7984 432.9806 433.1012 433.3125 433.8158
   434.0494 434.3984 434.5952 434.5989 434.8697 435.0866 435.5829 436.1897
   436.3052 436.3629 436.6629 436.7371 437.1541 437.3921 437.7554 437.8397
   437.9423 438.3391 438.9268 438.9556 439.1852 439.3439 440.2077 440.4317
   440.4804 440.6843 440.7829 441.0419 441.1898 441.3654 441.3714 442.1617
   442.1891 442.5218 443.1401 443.7539 444.2091 444.4578 444.5508 444.7843
   444.7881 445.1999 445.7929 446.6239

          k = 0.0417 0.0722 0.0940 (  2427 PWs)   bands (ev):

   -13.0392 -12.8240  -1.5061  -0.0024   2.6240   2.6459   2.8269   2.8533
    10.2091  13.5467  15.7831  15.8662  16.2460  16.3511  16.8670  16.9831
    19.5431  20.1255  27.4798  29.3882  30.1502  31.0718  31.4064  32.5723
    34.4823  34.5262  34.8573  37.1460  38.5450  38.9706  39.6404  39.7709
    40.0956  42.7723  43.4374  43.8262  44.2089  45.2713  46.4870  46.7424
    47.3647  49.2975  49.8118  50.1726  53.3567  54.6596  54.9194  56.9664
    57.2382  57.7722  58.4739  59.9368  60.7525  61.5250  65.4364  65.6823
    68.2217  68.6329  69.5046  70.2703  75.2601  75.3256  76.0099  76.8589
    77.8190  78.2418  78.4917  80.6038  80.8039  82.5660  82.7211  86.5953
    87.1499  87.4218  87.6098  87.6977  88.4695  89.8084  90.0635  91.7448
    92.4604  92.8899  93.2317  93.2854  95.6413  95.7734  97.0318  97.4613
    98.4658  99.2726  99.3939  99.6907 101.1947 101.8068 101.8162 102.7688
   103.7818 104.2999 104.5216 104.7408 105.0815 105.6248 105.6814 106.9386
   108.1689 108.5261 108.6362 109.0761 109.4201 110.6713 111.5151 112.6225
   113.3513 113.7317 115.0834 115.1168 115.2569 115.3536 117.2300 117.6318
   118.4923 119.2178 119.4731 119.9537 120.2148 121.0337 121.0830 121.6985
   121.7744 122.3844 122.9831 123.4382 123.7920 124.3107 124.8324 127.3989
   127.9313 128.3710 128.8993 129.5998 130.5724 130.5733 130.9327 130.9579
   132.0955 132.1190 132.7558 134.0596 134.8616 134.9494 137.3761 137.4995
   137.7640 138.0756 138.1977 138.3179 138.4683 139.0594 139.5435 140.0518
   141.5300 142.1811 142.7272 143.2555 143.3845 144.6395 145.0570 145.3159
   145.7375 145.8400 145.9600 146.5029 147.3101 148.2544 151.3222 151.8483
   152.5383 153.1344 153.3279 153.5459 154.5536 155.6598 155.6736 156.8391
   157.4022 157.8765 158.6797 159.7808 159.9419 160.9257 161.0987 163.2072
   163.9929 164.2679 164.9345 165.5275 167.2508 167.5705 167.7561 169.7167
   171.7742 172.0889 172.3595 173.0732 173.4763 174.3819 174.6026 175.9098
   177.4119 178.3822 178.5757 178.9307 179.2853 180.0370 181.4781 182.6293
   183.7201 183.7299 184.1771 184.6059 185.3034 186.8982 187.6615 188.7484
   189.1885 189.3209 189.3785 191.2171 191.3140 192.3893 193.5239 193.9422
   194.7009 196.4778 196.7207 197.0365 198.9950 199.1515 200.1038 200.4818
   200.5052 201.0821 201.6366 201.8455 202.4270 202.4847 203.7554 204.3486
   204.6195 205.5406 205.7751 206.4233 206.8435 207.6177 207.8526 208.0964
   208.7682 209.3459 209.7935 209.8268 212.0854 212.6881 212.8222 214.0731
   214.5116 214.6389 214.9828 215.1270 215.2277 217.1548 217.4665 217.6065
   217.8414 217.8615 219.0257 219.3192 219.5422 220.5732 220.8599 221.2767
   222.1563 222.1951 222.3416 222.4154 223.5354 223.5633 224.0828 224.1173
   224.2271 224.4670 225.0441 225.6796 226.0857 226.6573 226.8474 227.6064
   227.8914 228.5375 228.6336 229.1615 229.2454 229.9858 230.7269 231.1431
   231.1578 231.4697 232.0166 232.8499 233.0248 233.5373 233.8229 233.9193
   234.1440 234.2646 235.1407 235.3225 236.4209 236.4344 236.7905 237.0244
   237.4185 238.1313 238.2246 238.6657 239.0543 239.4924 239.6950 240.0525
   240.3591 240.6084 242.3329 242.5817 242.6817 242.7142 243.2056 243.6625
   243.7301 244.6375 244.6482 245.2609 245.6971 245.7908 247.0335 248.2441
   248.4304 248.4591 249.2032 249.8491 249.9844 250.4335 250.6307 251.2406
   251.5498 252.8288 252.9250 253.4712 254.1499 254.4570 254.5258 254.7184
   254.9928 255.4629 255.6755 255.8320 256.4653 256.7090 256.8456 257.8557
   257.9879 259.2832 259.8268 260.0171 260.3385 260.4755 260.9284 261.1711
   261.6282 261.6693 262.5481 262.5759 265.0480 265.4062 265.8936 265.9321
   266.1651 267.0243 267.6547 267.7016 268.1425 268.3781 268.7570 269.0993
   269.4834 269.5574 270.8235 271.3203 271.9522 273.9284 274.0861 274.2726
   274.6395 275.4181 275.9313 277.0972 277.3012 278.2289 278.2467 279.0200
   279.3669 279.5653 279.8813 280.2844 280.3274 280.6954 280.8265 280.8503
   281.2338 281.4594 281.6673 282.2292 283.1630 283.9677 284.1253 284.3385
   284.7800 285.3428 285.7578 285.9433 286.7041 286.9022 287.2487 287.5108
   287.7176 288.2707 288.5742 288.7952 289.8185 290.2281 290.3975 291.4644
   292.2532 292.6549 292.9606 293.7220 294.3076 294.6281 294.7829 294.7846
   295.1937 295.5914 295.7774 297.2211 298.8561 298.9536 299.1016 299.7273
   299.7968 299.8366 301.4473 301.5254 302.2470 302.2671 302.7708 303.6637
   304.2179 304.3133 304.7774 304.7954 305.2309 306.3215 306.3436 306.4045
   306.6247 306.9363 307.0721 307.3956 310.5408 310.8029 311.4782 311.8761
   312.1269 312.1604 312.3944 312.7368 313.0894 313.4015 313.8607 314.2249
   314.7187 315.3075 315.5251 316.0236 317.3296 317.9102 318.3413 318.3505
   318.5774 318.8373 319.1529 319.7100 319.8904 320.1678 320.5241 321.0308
   321.7174 322.0814 323.1011 323.1823 323.9716 325.8922 326.6204 327.1299
   327.7408 328.1972 328.4729 328.5273 328.8596 329.6533 330.3170 331.9621
   333.0713 333.4949 334.7383 334.9387 335.0464 336.7457 337.3707 338.6106
   338.9349 339.2746 339.6350 339.8500 340.2087 340.9294 341.5045 342.5904
   343.1279 343.5596 343.6134 343.9203 343.9771 344.5121 344.5295 345.1116
   345.1539 346.2474 346.4943 346.7460 347.2178 348.1164 348.6099 349.9246
   350.4156 350.5535 351.1936 351.4782 352.0350 352.4673 352.4770 352.7263
   352.9346 353.0941 353.9821 354.5269 355.3392 355.9300 356.0138 356.8928
   358.1464 358.5335 359.3748 360.0077 360.2043 360.6361 360.6565 361.5018
   363.1886 365.3059 365.8279 366.0953 366.5982 366.8260 368.3785 368.5176
   369.3602 369.3631 369.7588 369.8792 370.5617 371.1343 371.3714 371.7008
   371.8024 372.0575 372.2193 373.7160 373.8209 374.2633 374.7098 376.1398
   376.8238 376.8872 377.5086 377.5781 377.6694 377.7806 377.8335 378.0136
   378.1666 378.7459 379.1310 379.2639 379.6912 379.7188 379.8910 380.4656
   380.5275 380.6219 380.7375 380.7762 381.0082 381.8205 382.4209 383.6240
   384.2240 384.4482 384.7958 384.8460 385.0310 385.7532 385.8158 385.9913
   386.3850 386.4330 386.9919 387.2854 387.6064 387.6706 388.2833 388.5206
   390.0395 390.2617 390.4903 390.5917 391.4603 391.5935 392.9414 393.2202
   393.6797 393.6840 394.7273 394.8252 395.2893 395.6519 395.8422 396.1994
   396.2678 397.5933 398.6222 399.3814 400.2741 400.6037 400.8209 401.0196
   401.1896 401.3055 401.3816 401.6421 401.8883 402.1742 402.5875 402.6686
   402.8450 403.0074 403.0907 403.3301 403.6157 403.7835 403.9098 404.0259
   404.0819 404.2259 404.6517 404.9478 405.7668 406.0641 406.4510 406.5441
   406.6223 407.0175 407.4334 408.1674 408.2878 408.6926 408.8020 408.9284
   409.5642 409.6354 409.7051 410.4445 410.4886 410.9684 411.0020 411.0269
   411.2859 411.3239 411.4026 411.7079 412.7752 413.3384 413.9543 413.9798
   414.3771 414.5011 414.6406 414.7187 415.1289 415.1515 415.1948 415.9776
   416.0377 416.4053 416.7024 417.0685 417.4118 417.7685 417.9891 418.1437
   418.2069 418.2321 418.7547 419.2865 419.5662 419.6177 419.7445 420.0026
   420.6403 421.0648 421.1357 421.5119 421.5167 422.2967 422.4002 422.4412
   422.5587 422.6530 422.9927 423.1116 423.1918 423.4814 424.6251 424.6521
   426.2154 426.9825 427.5839 427.7780 428.0171 429.1305 429.1529 429.2330
   429.7413 429.8174 429.8735 429.9578 430.0226 430.6530 430.7949 430.9666
   431.1337 431.2067 432.4980 432.5707 432.9785 433.4425 433.5080 433.6039
   433.7285 433.7611 434.1253 434.5832 434.8806 435.4589 436.0370 436.3644
   436.3820 436.4950 437.2981 437.4441 438.4447 438.4738 438.6790 438.7366
   438.8096 439.3112 439.6301 439.8157 439.9022 440.8463 441.6074 441.8266
   441.9486 442.6610 443.2384 443.7029 443.7334 444.0503 444.2434 444.2979
   444.4577 444.5518 444.6388 444.6872 444.7363 444.8115 445.4068 445.8441
   446.7522 446.8251 447.0067 448.0045

          k = 0.0417 0.0722 0.1566 (  2430 PWs)   bands (ev):

   -12.9732 -12.8945  -1.0794  -0.5357   2.6322   2.6405   2.8351   2.8448
    11.2464  12.4526  15.8143  15.8470  16.2803  16.3183  16.9100  16.9539
    19.6550  19.8473  28.5726  29.2301  30.1832  30.5819  32.1831  32.7617
    33.3189  33.5455  35.8551  37.2555  37.7223  38.5524  40.4474  40.7227
    41.3137  42.1028  42.3161  43.7394  44.7011  45.2084  45.9995  47.0324
    47.4743  47.9930  48.6174  49.2997  55.2651  55.5643  56.2428  56.2653
    57.1157  58.7309  59.3763  60.8405  61.5854  62.4878  64.4564  65.0886
    65.6560  67.4119  68.8538  70.7453  72.1661  73.5414  75.6004  75.6167
    78.2994  78.3980  80.0708  82.1450  83.7672  84.7806  85.7639  85.9977
    86.1066  86.8395  87.3204  88.0680  89.6403  90.0726  91.1032  92.4322
    92.4729  93.3186  93.6937  94.4576  95.0551  96.3003  96.3689  96.5377
    97.0615  97.8882  98.2291  98.7429  99.4278  99.8348 102.2003 102.4650
   103.0410 103.1210 103.2195 104.2820 104.4759 105.9681 106.5843 106.6627
   107.5165 107.6789 108.2567 108.9879 109.0574 110.7535 111.9125 111.9921
   112.5051 113.4528 115.0007 116.3175 117.0655 117.9677 119.3786 119.4403
   119.8132 120.0188 120.0393 120.3183 121.1290 121.4462 121.6317 122.5994
   123.1730 123.5235 124.1301 124.1451 124.6538 125.3768 126.0674 126.4942
   127.3902 127.6337 127.7287 129.2551 130.3672 130.8735 130.9763 132.0718
   132.0882 132.5644 132.6736 132.9606 133.0952 133.4563 133.9153 135.2160
   135.5093 135.9701 136.2150 137.0514 138.0111 138.4295 139.3485 139.8352
   139.9894 140.1038 140.7896 142.2630 142.4999 143.0873 144.3922 146.2439
   147.8927 148.0722 148.4633 148.9626 149.5355 150.4369 151.1840 151.4158
   151.9475 152.7574 154.2297 154.8166 155.3234 155.7702 156.8924 156.9438
   158.5474 159.5532 160.4210 160.8454 161.0988 161.5063 162.1568 162.7678
   163.6186 164.5577 165.8729 166.4079 167.2249 167.6320 167.7491 168.1967
   169.1064 170.6704 171.1729 171.5763 173.2657 174.9939 175.0711 175.3869
   177.1182 177.5217 178.0059 178.6165 178.9463 180.0394 181.1315 182.2633
   183.4764 183.7754 184.4179 185.0807 185.6677 187.2130 187.4316 188.1829
   188.7982 189.8418 190.1706 190.5342 191.2970 191.4430 193.0809 193.1239
   193.9433 194.7244 194.9326 195.9972 196.7440 196.9061 198.6411 199.0972
   199.7052 200.5132 201.1240 201.2199 201.7613 202.0155 204.1991 205.0858
   206.1062 207.0588 207.3324 207.3493 209.5977 209.6416 210.0178 210.6123
   211.8349 212.0987 212.9633 213.4471 213.5784 214.5275 214.7024 215.1323
   215.2885 215.5086 216.5574 216.9121 217.2743 217.5625 217.7532 217.8116
   217.9348 218.4968 219.3187 219.3417 219.6235 219.6725 219.6834 221.1798
   221.8355 221.8835 222.7035 222.8741 223.0627 223.2095 223.6222 223.6419
   223.7601 224.3166 224.9428 225.0860 225.5111 225.7015 226.0705 226.3801
   227.2223 227.5665 228.1957 228.3120 228.6786 228.7052 229.4906 230.0183
   230.0319 230.1538 230.4604 230.5199 231.2807 231.3770 232.3861 232.4365
   233.6168 233.6903 233.9082 234.2136 234.5802 235.2846 235.5148 235.7207
   236.0365 236.1809 236.4420 237.1391 237.7617 238.1288 240.1281 240.1602
   240.3676 240.4471 241.2176 241.3177 242.4393 242.6461 243.0036 243.0619
   243.6225 244.9521 245.1757 245.4765 246.5358 246.7231 247.2210 247.6491
   247.6752 248.1831 249.4795 250.1688 250.6786 250.9166 251.0234 251.3268
   251.7241 252.0170 252.3721 253.6669 253.8288 255.2029 255.8596 256.0390
   256.6551 257.0348 257.6894 258.1982 258.3730 258.7351 259.3382 260.5295
   260.9562 261.8794 262.0003 262.4557 262.6303 262.6619 263.5781 263.7124
   264.4845 265.6718 265.6800 266.4057 266.8683 267.1646 267.3810 267.7862
   267.9944 268.1030 268.6228 268.6638 268.9517 269.4156 269.5915 269.6181
   270.1795 270.2285 270.5177 270.5981 271.5571 271.7446 272.6415 273.2359
   273.4619 273.6429 273.8655 275.0631 275.1829 275.5931 275.7127 276.8820
   277.3908 277.5816 278.2208 278.3959 278.4909 278.5754 278.7336 278.9908
   279.0293 279.6926 279.9092 280.1291 280.2004 280.3491 280.5346 280.5787
   282.5050 283.3065 283.5674 283.8181 284.8345 284.9826 285.9767 288.9864
   289.2541 289.5628 289.6266 289.7929 290.3026 290.7218 290.7638 290.8397
   290.8752 291.6450 291.8223 291.8676 291.9316 292.0922 292.6008 294.6299
   295.2593 296.3271 296.5386 297.5737 299.2959 300.5855 300.8299 301.0169
   301.3852 301.6422 301.9429 302.4747 302.6968 302.9312 303.2974 303.5495
   303.5788 303.6587 304.0231 304.8075 306.0208 307.4428 307.6863 307.9096
   308.2104 309.1204 309.5859 309.7837 310.9400 311.6233 311.7023 312.2255
   312.8384 312.8648 313.8091 313.8697 313.9040 314.0806 314.9068 315.6275
   315.7494 316.7354 317.3654 317.9433 318.0177 318.0658 318.2437 320.1801
   320.1991 321.3480 321.5199 322.3561 322.9054 322.9090 323.1655 323.3008
   323.7297 323.7797 323.9318 325.1820 325.8485 325.9110 325.9431 326.8590
   328.6413 328.6991 328.9330 328.9372 329.3138 330.9058 331.0142 331.1144
   332.1319 332.2377 332.2982 332.7747 332.9047 332.9419 333.1922 334.3092
   334.3145 335.8929 336.0390 336.1895 336.8023 337.5446 337.9988 338.1513
   338.9556 339.6562 340.5329 341.6535 342.2406 343.5299 343.6190 344.8800
   344.8838 345.5095 345.8242 345.8744 347.2051 348.5276 349.1988 349.9134
   351.5151 351.5708 352.0570 352.2736 353.0619 353.0694 353.5235 354.0134
   354.1866 354.2510 355.3240 355.5257 356.4163 356.6681 357.7539 359.1279
   359.1798 360.6301 361.0856 361.2651 361.3850 361.4017 361.4925 362.5181
   362.8730 363.2920 364.1805 365.1616 365.5229 366.3846 368.4630 368.5590
   368.8232 368.8572 369.0005 369.2903 369.4559 370.1476 370.1841 370.3267
   370.5413 370.7793 370.8407 371.7225 372.1725 372.7651 373.1226 375.1650
   375.2312 375.6141 376.8925 376.9916 377.4388 377.6175 378.1333 378.2038
   378.3273 378.4076 378.8656 378.9229 379.0398 379.0817 379.3055 380.7242
   381.6747 382.8503 383.2513 384.1263 384.1277 384.2149 385.1631 386.1291
   386.3242 387.2630 387.3586 387.6462 387.7373 388.5848 388.9373 389.0756
   389.6061 389.9465 390.1592 390.5852 390.8235 391.6702 391.7923 392.1666
   392.2342 392.7890 392.8906 392.9301 393.0853 393.3801 393.7254 393.7472
   394.0967 394.3390 394.4097 394.4643 394.6850 394.9473 395.8739 396.1551
   396.5980 396.8152 397.9654 398.8131 398.8802 399.0359 399.0413 400.4370
   400.6949 400.9109 401.0251 401.1257 401.3624 401.6488 401.9528 401.9871
   402.2930 402.4297 402.6358 402.7756 402.8533 403.2475 403.5924 403.7415
   403.9223 404.3027 404.3276 404.6736 404.8741 405.4156 405.8534 405.9218
   406.0173 406.2927 406.5180 406.9034 407.0471 407.1647 407.2870 407.6198
   407.7914 407.8345 407.9587 408.3961 408.4962 409.0205 409.4003 409.4711
   409.8189 411.1204 411.4282 411.4435 411.6122 412.2546 412.3089 412.6287
   412.6738 412.8781 412.9650 413.1336 413.3094 413.4210 414.1184 414.6774
   414.6875 415.2887 415.5348 415.5749 415.8309 415.8593 416.3334 416.9935
   417.3745 417.3791 417.7037 418.1379 418.3147 418.8900 419.2173 419.5310
   419.9843 420.0165 420.4098 420.4891 420.9354 421.7598 421.7664 422.1898
   423.1526 423.1916 423.6447 424.2302 424.3662 424.9874 425.1267 425.2342
   425.3530 425.4109 425.8591 427.3192 427.4230 427.6228 427.9586 428.0514
   428.7477 429.8968 430.1975 430.5101 430.7154 430.7967 430.8354 431.0050
   431.1161 431.3315 431.5768 431.8739 431.8751 431.9321 433.1595 433.2551
   433.8837 433.9240 434.0792 434.4177 434.6155 435.2444 435.4932 435.7740
   435.8634 435.8833 436.2136 436.2752 437.0679 437.6088 437.9091 438.7127
   438.8149 438.8927 439.1628 439.7717 440.1826 440.2449 440.7968 440.8396
   441.6739 443.2765 443.3023 443.4930 443.5289 444.7586 444.9476 445.3476
   445.6529 445.8702 447.2069 447.3249 447.5140 447.7531 448.2933 448.3388
   448.6312 449.7721 449.8203 450.2106

          k = 0.0417 0.1684 0.0313 (  2410 PWs)   bands (ev):

   -12.7378 -12.4551  -1.2739   0.7568   1.4456   1.4777   2.2390   2.2826
    10.1449  13.9929  15.5084  15.6954  15.8618  17.2124  17.6408  18.1281
    19.9204  20.4706  26.9331  28.0090  29.4575  29.9104  30.9998  31.1108
    34.0028  34.2591  34.9873  36.0666  36.5734  39.4559  40.0857  42.4784
    43.0109  43.5125  44.0952  44.9885  45.8471  46.3779  47.1259  48.1247
    48.6077  49.6685  50.5579  51.1579  52.1950  52.5228  55.0432  55.3987
    56.4893  57.2244  59.7870  60.5667  61.3002  63.7745  64.5720  67.8526
    68.7508  70.0348  70.7545  72.0281  72.6406  73.3252  75.1816  76.2818
    76.9672  77.4018  78.3538  80.7582  81.6286  82.0067  82.7937  84.3892
    85.7463  85.7799  86.2829  86.7583  87.7592  88.4953  89.4780  90.0539
    90.2700  91.1114  91.5951  92.7410  92.8860  93.5456  95.5526  96.0563
    96.6397  97.2325  97.8320  98.3521 100.5854 102.2681 102.4164 103.4487
   103.8285 104.2577 104.8247 105.3477 106.3741 107.2436 107.2958 107.8665
   108.3410 109.7590 110.1760 111.0661 111.6748 112.4610 113.0428 113.2235
   113.4670 113.5575 114.1826 114.7475 115.6071 116.2948 116.5353 116.8044
   117.2328 117.5891 118.0970 118.4690 119.3445 120.1153 120.6367 121.0080
   121.6809 121.9429 123.3609 123.6856 124.3314 125.1859 125.6410 126.6131
   127.0704 127.1884 128.2089 129.6868 130.0122 130.3063 131.4301 131.7967
   133.2924 133.4704 134.2320 134.3424 135.0095 136.0232 136.2125 136.6805
   137.5883 137.8487 138.2966 139.4523 139.7762 140.3208 142.0024 143.0013
   143.6279 144.3213 144.4588 144.5746 145.0409 146.6790 146.7707 147.7945
   148.5741 148.8063 149.1695 150.1165 150.5666 151.3294 152.6976 153.5424
   153.8798 153.9593 154.3926 155.4749 155.6014 156.3289 156.9059 157.5044
   157.6582 158.2415 158.5326 158.9257 160.3168 160.6502 161.1996 162.3885
   163.0258 163.5086 164.3016 165.3213 166.0768 166.6344 167.7220 169.3337
   169.5701 169.9201 171.0263 171.6542 172.3319 173.6366 175.4403 176.9856
   177.6617 178.4846 179.7659 180.7032 181.2372 182.9621 183.3623 183.8453
   184.5004 185.4886 185.9855 186.6505 186.8551 187.5729 187.8381 188.7712
   189.3045 189.4772 189.6415 190.1030 190.2667 190.9946 191.6062 192.4638
   193.0152 193.5039 193.9530 194.6073 194.7896 195.4252 195.9396 196.6798
   198.0968 198.7734 199.7591 200.2376 200.7022 201.1361 201.2703 201.5421
   202.8263 203.4640 203.9993 204.3899 204.8624 205.0031 205.6489 206.9742
   207.3956 207.5158 207.7104 208.8576 209.8144 210.3943 211.1259 211.5584
   211.8065 212.2987 212.3611 212.8072 214.2540 214.7372 214.8480 215.3800
   215.5290 216.3022 217.2436 217.6934 218.6844 219.2309 219.3339 220.1992
   220.5979 221.3103 221.9666 222.0636 222.3494 222.7667 222.9468 223.2280
   224.0108 224.7394 224.7917 224.8255 225.6683 226.0290 226.8243 226.9198
   227.9170 228.4818 228.5508 228.9530 229.3703 229.5770 230.1884 230.6860
   231.2281 231.7266 232.3737 232.5676 233.3429 234.2404 234.6891 234.8563
   235.1656 236.2911 236.3950 236.6695 236.8267 237.6193 237.9941 238.6223
   238.7742 239.4861 239.9262 240.1650 240.9126 241.1654 242.0381 242.3755
   242.7839 243.2294 243.5222 244.3745 244.7952 245.0733 245.4060 245.8933
   246.0134 246.2839 246.7290 246.9468 247.0623 247.2796 247.7267 248.0377
   248.1475 248.7186 249.5012 249.6380 249.9224 250.9377 251.0610 251.5701
   252.1297 252.2458 252.4744 252.6311 253.1797 253.4128 253.5707 254.9568
   255.7127 256.1120 256.6786 256.9465 257.1500 257.5920 257.7081 258.1931
   258.6507 259.4083 259.5315 259.7086 259.9798 260.8512 261.4809 261.8246
   261.9904 262.0706 262.3376 262.9496 264.1761 265.5715 265.9829 266.3742
   266.5790 266.8895 267.2183 267.9235 268.2163 269.2951 269.6773 269.8224
   269.9579 270.5202 270.9701 271.8266 272.2109 272.5201 272.8575 273.5082
   273.7177 274.3521 274.8374 275.8723 276.4390 276.6465 277.0340 277.4848
   277.7492 277.8963 278.6965 278.8142 280.0161 281.2399 281.8990 281.9512
   282.4078 282.5368 282.9866 283.9801 284.3380 284.7461 285.9280 286.4713
   286.7183 286.9975 287.6692 287.8794 288.0769 288.5375 288.8622 289.1767
   289.7299 289.8564 290.2674 290.6812 290.7198 291.0336 291.5817 292.3490
   293.3676 293.9117 294.5069 295.0571 295.2447 295.6081 295.9062 296.6696
   296.7917 296.9264 297.8927 298.5189 298.5976 298.7390 298.9133 300.1854
   300.5210 301.7664 302.1173 302.3865 302.5253 302.9699 303.0507 303.1133
   303.3505 304.3959 304.7279 304.9936 305.2178 305.9047 306.8071 307.5674
   308.5336 308.8541 309.8528 310.2473 310.4966 311.0055 311.3114 311.4186
   312.0812 312.3132 314.2213 314.4298 314.6352 315.2116 315.3510 315.9253
   316.3923 316.9399 317.1530 317.7340 317.8531 318.1017 318.4475 319.1065
   319.3246 319.6177 320.6284 320.8984 321.4278 322.5285 323.6973 323.8044
   324.2065 324.3105 324.4455 324.6997 325.4380 325.5948 325.9031 326.0555
   326.3828 327.0261 328.2783 329.4333 330.1042 330.2203 330.3683 331.5795
   332.0008 332.8185 333.8377 334.9235 335.2395 335.5028 335.8941 336.7130
   337.8457 338.0141 338.5662 339.0860 339.8513 340.4852 341.3731 341.4312
   342.1377 342.6189 343.8197 344.2363 344.9666 345.9135 346.2155 346.5230
   347.4828 348.5916 349.0914 350.1104 350.9069 351.8495 352.2925 352.6282
   352.7431 353.0604 353.2866 353.9093 353.9719 354.3895 354.6896 355.0114
   355.1543 355.3811 355.6089 356.0020 357.1357 357.3594 357.5796 357.6655
   358.6020 358.8045 359.3582 359.4194 359.7212 360.4171 360.5904 361.3494
   361.5033 362.0071 362.2861 362.7892 363.1524 363.4909 364.0029 364.1648
   364.6055 365.2480 365.5165 365.6757 366.2374 366.3030 366.4598 366.7838
   367.2626 368.5166 368.7955 369.3071 369.4365 369.5764 369.8502 370.1253
   370.3001 370.4490 371.1384 371.1814 371.4912 372.3272 373.4367 373.6429
   374.2349 374.3673 375.8252 376.0702 376.8489 377.1465 377.3303 377.7319
   377.9968 378.0626 378.3307 378.6155 379.8804 379.9454 381.1065 381.2772
   381.3778 381.7249 381.8920 382.2404 383.3944 383.5823 384.5044 384.7735
   384.9317 385.1717 385.4558 385.5707 385.8800 386.3217 386.7977 386.9485
   387.2694 388.1082 388.9495 388.9770 389.4385 389.9182 389.9791 390.8729
   391.9223 392.2645 393.3588 393.4277 393.8945 394.3668 394.6746 395.2226
   395.7485 395.8013 396.0719 396.1372 396.2112 396.7975 397.0789 397.1202
   397.3330 397.5752 398.0954 398.2668 398.5046 398.6332 399.5686 400.5561
   400.8398 401.0505 401.1816 401.7129 402.0524 402.4431 402.6880 403.1669
   403.9806 404.9364 405.0109 405.3589 405.4780 405.6499 405.8258 405.9482
   405.9708 406.8501 407.5316 407.6906 407.9726 408.4110 408.4648 408.5149
   408.8440 408.9839 409.4575 409.8966 410.0135 411.0042 411.4099 411.6452
   412.1289 412.4495 413.1418 413.4895 413.6633 413.7188 413.8543 414.0775
   414.2004 414.8915 415.2850 415.3931 415.5520 415.7725 416.8764 417.3484
   417.6079 417.8560 417.9390 418.1913 418.4459 418.9398 419.2746 419.6965
   419.9861 420.4028 420.5373 420.9459 421.5556 421.6604 421.9096 422.6843
   422.7661 423.2372 423.6448 423.7747 424.0135 424.2083 424.6283 424.7752
   424.8253 424.9522 425.1891 425.5292 425.6613 425.8433 426.2425 426.6707
   426.7456 427.5967 428.0332 428.3398 428.4888 428.7384 429.0812 429.2885
   429.8910 429.9362 430.1342 430.2242 431.0892 432.2208 432.5170 432.6354
   432.7201 433.0137 434.6658 434.6924 434.8180 434.9986 435.0424 435.1025
   435.3166 435.5355 435.5765 435.8113 435.9844 436.4192 436.9160 437.0576
   437.2697 437.3592 438.1631 438.3402 438.8760 438.9782 439.0673 439.2680
   439.4735 439.7871 440.3220 440.3656 441.2997 441.4758 441.5759 441.9547
   442.3047 442.7493 442.9953 443.1248 443.3479 443.6245 443.7212 446.0093
   447.3831 447.4960 447.5512 447.7250 447.9549 448.3081 448.5311 448.6259
   448.7167 448.9581 450.0477 450.4146

          k = 0.0417 0.1684 0.0940 (  2425 PWs)   bands (ev):

   -12.7020 -12.4951  -1.0482   0.4147   1.4536   1.4832   2.2449   2.2767
    10.7150  13.5464  15.5523  15.7083  15.9409  16.9972  17.6318  17.7939
    20.1065  20.4401  27.0271  28.5015  29.4278  30.0725  30.9516  31.3203
    32.9554  33.8453  35.3955  37.0300  37.5059  39.5017  39.7206  41.4001
    41.9991  43.4065  43.7299  44.7627  46.1356  46.2653  47.6703  47.8574
    48.3092  49.4774  50.3312  50.4902  53.7332  54.5384  55.1478  56.3433
    57.2570  57.5141  59.3275  59.5897  61.2977  63.2612  65.4702  66.7394
    67.4288  67.9373  70.1636  71.5019  72.1029  73.3865  75.8393  77.3315
    78.3159  79.2664  79.4950  79.7128  80.9416  82.4514  83.5754  83.8010
    84.9108  85.4187  86.1474  87.4592  88.3044  88.7117  89.2626  89.5343
    89.8809  92.1570  93.1921  93.2959  93.5499  94.3491  95.4287  96.2914
    96.5217  97.1055  97.6883  97.9818  98.9675 100.7273 101.6555 102.1405
   102.7979 104.0322 104.5911 104.7064 105.4038 106.0751 107.1085 107.7752
   108.6106 109.9836 110.6809 111.2729 111.7968 112.1527 112.3122 112.9086
   113.5036 114.5497 114.9797 115.0830 115.2580 116.4218 117.0043 117.2461
   117.9987 118.4214 119.1595 119.4441 119.5666 120.8707 120.9186 121.8793
   122.7359 123.1102 123.6185 123.7937 124.7324 125.5542 125.7782 126.7623
   127.0924 127.8855 128.7686 129.1851 129.4413 129.6686 130.1867 131.6570
   131.8840 132.4448 133.5887 133.8283 134.1682 135.3590 136.3299 137.1449
   137.3755 137.9455 138.2033 139.9027 140.1864 140.5482 141.5339 142.4681
   142.9928 143.2342 143.8394 144.0209 144.5954 145.9787 146.9859 147.8786
   148.7912 149.1339 149.3990 149.9881 150.2667 151.2611 151.3604 151.7220
   152.2770 152.4502 154.0173 154.4506 155.0955 155.5777 157.7141 158.3473
   158.8649 159.3231 160.3112 161.0785 162.0770 162.4547 162.7158 163.3143
   164.2247 165.4758 166.3040 167.1769 167.3620 168.2535 168.6478 169.6073
   169.9233 170.5513 171.0133 172.3318 173.8110 174.3683 174.4416 175.6664
   176.0460 176.6356 177.6512 178.6078 179.2898 180.0438 180.9793 181.0893
   182.9476 183.6359 184.3501 185.2368 185.4018 185.7193 186.2643 186.6158
   187.0559 188.3864 189.8534 190.0579 191.3566 191.8740 192.2983 193.2853
   193.6602 194.2363 195.0940 195.7449 196.0121 197.2831 198.2018 198.8386
   199.3621 199.8926 200.2901 200.8500 201.3672 201.7245 202.4073 203.2836
   203.7506 204.2178 204.3153 204.6222 204.8532 206.1488 206.7585 207.3358
   208.4066 208.5668 208.9766 209.0560 209.5089 210.2229 211.5410 212.0858
   212.8146 213.1902 213.5968 214.0151 214.3192 214.5416 214.7775 215.1576
   215.3636 215.8887 216.1388 216.5001 216.8576 217.1399 219.0723 219.3386
   219.5191 219.8526 221.0242 221.4609 221.8022 222.2995 222.5941 222.8507
   224.2011 224.3371 224.4908 225.2219 225.3037 225.9881 226.7230 227.4905
   227.6061 228.0840 228.3517 228.4475 228.9173 230.1218 230.1566 230.7786
   231.0745 231.3357 231.4521 231.7622 232.3280 233.8040 234.0664 235.0873
   235.5586 236.1574 236.3035 236.5244 236.9867 237.1591 237.3379 237.4238
   238.1020 239.0454 239.6581 239.8859 240.3501 240.5984 241.1310 241.4164
   241.9931 242.7000 242.8522 243.0175 243.3533 244.1115 245.3851 245.5894
   246.5634 247.1505 247.4347 247.8011 248.1398 248.4904 248.5410 249.1350
   249.6116 249.6994 250.0338 250.7784 251.3898 251.4233 251.7470 252.0442
   252.3346 252.5761 252.9455 253.3701 253.7277 253.8218 254.0609 254.4829
   255.3837 255.5045 256.6199 256.7890 256.9323 257.3051 258.3846 258.7920
   258.9493 259.7328 260.2086 261.0454 261.4728 261.6362 262.2727 262.7717
   263.0058 263.3281 263.6465 264.9174 265.0174 265.3635 265.6147 265.8119
   266.2412 266.4102 266.5447 266.6607 268.5367 269.2342 269.4605 270.1925
   270.6651 271.2362 271.5030 272.0740 272.6969 272.7416 273.4666 273.7715
   274.2175 274.5087 275.3319 275.9674 276.4672 276.9956 277.2832 277.7018
   278.2612 278.7696 279.0771 279.2470 279.6909 279.8496 279.8568 280.3062
   281.0359 281.9145 282.0470 282.6231 283.0667 283.6602 284.1099 284.5321
   285.1683 285.6213 286.0920 286.2986 286.8882 287.1129 287.2051 288.0200
   288.6913 289.6024 289.9087 290.9037 291.2051 291.5692 291.6515 291.8762
   292.0237 292.9657 293.2783 294.2449 295.0247 295.2814 295.5172 295.8927
   296.1030 297.0599 297.4633 298.4901 298.8673 298.9858 299.1044 299.3784
   300.2610 300.7594 301.3610 301.9103 303.2066 303.4076 303.7515 304.4125
   305.4073 305.9823 306.5212 306.7396 307.3642 307.6457 307.6725 308.2767
   308.4771 308.8503 309.1029 310.4135 310.6820 311.5644 312.2453 312.6267
   312.7014 312.9744 313.1416 313.2979 313.6652 314.2704 314.5223 315.6816
   316.8423 317.2713 317.8926 318.3884 318.5655 319.0997 319.6442 320.3163
   320.3823 320.6760 321.2234 321.4883 321.7704 322.6517 324.3640 324.7043
   325.1678 325.5641 325.7044 326.8561 327.1466 327.4998 328.1399 328.7809
   328.9294 329.4289 330.1232 330.1662 330.5076 331.0545 331.6521 332.2820
   333.0094 334.4005 334.4386 334.7310 334.8719 335.3748 335.4077 335.6066
   335.9116 336.2334 337.6668 337.9561 338.0023 339.0766 339.5170 339.7781
   340.5235 341.7013 342.6093 343.5875 343.7907 344.2123 344.6798 344.9970
   345.3153 346.6885 347.1316 347.4403 347.6929 348.6156 348.8254 349.5046
   349.6712 350.0413 350.3597 351.0195 351.3453 353.2934 353.6222 353.8662
   354.5840 354.6966 354.9432 356.2793 356.4299 357.0352 357.1103 357.4259
   357.8834 357.9563 358.1725 358.7448 359.2494 360.7454 361.1683 361.7522
   362.2133 362.5203 363.1752 363.5240 363.6333 363.8057 364.0704 365.1595
   365.4000 365.7443 366.0258 366.4606 366.6177 366.8206 366.9655 367.9387
   368.6278 368.9870 369.6348 369.9755 370.3586 370.4214 371.3416 371.4452
   371.6946 371.9157 372.3230 372.6349 372.9227 373.4568 374.9023 375.3465
   375.6627 376.1699 377.3167 377.6433 377.9492 379.4016 380.1645 380.2665
   380.3940 380.4887 380.6544 380.7462 380.8289 381.5431 381.6116 381.7527
   382.1746 382.3508 382.9071 383.0404 383.3540 383.6714 384.1997 385.5360
   385.9293 386.5884 387.0771 387.1866 387.3065 387.3651 388.3181 388.4184
   389.1306 389.3920 389.5524 390.5922 390.8249 391.0966 391.2884 391.5774
   391.7527 391.9566 392.6871 392.7057 393.0700 393.5468 393.6813 393.8117
   393.9336 394.1618 394.3756 394.9406 395.1705 396.2059 396.3661 396.9761
   397.0196 397.2009 397.5089 397.5549 397.7111 397.8674 398.0840 398.5891
   399.2782 399.5487 399.8065 399.9573 400.0728 401.0153 401.1008 401.1988
   401.9590 402.6550 403.7538 403.7925 404.1853 404.4528 404.8536 405.0108
   405.2202 405.3899 405.7497 405.9091 406.3125 406.4075 406.6509 407.9601
   409.2251 409.7277 409.8924 410.1873 410.1981 410.2274 410.4273 412.4800
   412.7331 413.2208 413.7786 413.8083 413.8372 414.1430 414.5003 414.5920
   415.0029 415.1912 415.4770 415.6484 415.7954 416.4920 416.8868 417.3957
   417.7117 417.8311 418.0149 418.1299 418.5092 418.8853 419.0970 419.2143
   419.5924 419.7222 420.2582 420.2701 420.4550 420.8656 421.0815 421.4513
   421.4734 421.8012 422.3670 422.8618 422.9461 423.6208 423.7674 423.9539
   424.4240 425.0687 425.5129 426.0734 426.1427 426.2908 426.3555 426.8056
   426.9031 426.9692 427.2243 427.6383 428.0771 428.1665 428.8281 429.1533
   429.2565 429.3183 429.5336 429.7585 430.1930 430.4414 430.6230 431.7302
   432.2817 432.4791 433.8290 433.9211 434.3272 434.3588 434.7503 434.7904
   435.8196 436.0186 436.4084 436.4501 436.9819 437.1851 437.6996 438.0545
   438.4246 438.7017 438.8302 439.0566 439.2080 439.3349 439.4754 439.7968
   439.9117 440.3432 441.6547 442.0624 442.7981 443.9686 444.2730 444.7386
   444.9666 445.2247 445.3815 445.6291 445.8230 446.6217 446.6808 446.7378
   447.5726 447.7073 447.7667 448.0299 448.0803 449.1005 449.8064 450.2636
   450.2938 450.8043 451.3463 451.5008

          k = 0.0417 0.1684 0.1566 (  2426 PWs)   bands (ev):

   -12.6384 -12.5628  -0.6332  -0.1049   1.4663   1.4784   2.2549   2.2666
    11.6622  12.7042  15.6165  15.6768  16.1702  16.5547  17.6245  17.6480
    20.2691  20.3759  27.4221  28.0216  30.1969  30.3027  31.0808  31.5744
    32.2396  32.9922  36.2397  37.3454  38.3470  39.2437  40.0376  40.7418
    41.1468  41.9944  44.0300  44.4583  46.1027  46.3925  47.1908  48.0108
    48.7860  49.5261  50.0589  50.3978  54.4451  55.1206  56.3294  56.8161
    57.8492  58.6765  59.4524  60.0242  61.7571  62.2300  63.0930  64.7645
    65.7947  68.1099  70.2382  71.5917  72.5870  74.1352  75.3175  76.6469
    78.4999  79.9454  80.1774  80.7193  81.0142  82.4640  83.4786  84.4400
    85.0244  85.7962  86.4021  87.1263  87.5004  88.0663  89.0667  90.4524
    91.5450  93.0673  93.4060  93.7362  94.5695  94.6199  95.1293  95.7697
    96.2451  96.6631  97.5091  98.1735  98.6664  99.5267 100.3852 101.3436
   101.9783 102.3972 104.0304 104.6304 105.3300 105.6688 106.1438 107.8116
   108.1879 110.1043 110.1917 110.8563 111.2238 111.9160 113.1645 113.8419
   114.4787 114.6355 114.9384 115.3886 115.8419 116.7923 117.2564 117.9765
   118.3998 119.1339 119.4282 119.7352 120.1425 121.3372 121.7697 122.2338
   123.6305 123.9599 124.9553 125.2514 125.5896 125.7314 126.1492 126.2717
   126.9433 127.5266 127.7726 128.6022 128.9655 129.7557 130.2644 130.7609
   131.2346 131.3998 131.9830 134.1324 134.3406 136.0145 136.1989 136.6175
   137.0522 137.5585 138.2813 138.5349 139.7780 140.7297 141.1243 142.0286
   142.5806 143.5070 143.7864 144.8786 145.1795 145.5803 146.1207 146.4598
   146.6247 147.9629 148.5548 148.9018 149.7743 150.2819 150.9433 151.7611
   152.2480 153.6008 154.4381 155.5271 155.9226 156.5048 157.6631 158.6154
   158.9871 159.8424 160.7756 162.3603 163.3891 163.8911 164.4898 165.0293
   165.7215 166.3977 167.6324 168.1052 168.8300 169.4671 169.7610 170.3240
   171.2283 171.6726 172.2358 173.1605 173.6376 174.1797 174.3653 174.7170
   175.0213 175.8036 176.3353 177.1254 177.3583 178.1871 178.4907 179.5003
   180.9052 181.3930 182.1479 182.8230 183.0345 183.8167 185.0174 186.2613
   186.3876 187.9128 188.0961 189.7738 190.2885 190.5178 192.0035 192.7994
   193.1938 195.4862 196.3171 196.9301 197.9873 199.1597 199.8983 200.3335
   201.3487 201.7720 202.3441 203.0186 203.2617 203.6682 204.0991 204.3338
[...]
   362.7304 363.0101 363.0210 363.9842 364.0751 364.1766 365.1610 365.3130
   365.3199 365.4669 365.7077 365.9627 367.0242 367.4837 367.5057 367.8942
   368.1986 368.3963 368.6765 368.8080 369.3455 370.1297 370.1696 370.9634
   371.0502 371.1465 371.1642 371.6244 372.9800 373.2431 374.4115 374.6029
   374.6341 375.3798 375.4010 376.0937 376.3046 376.3405 376.4733 376.7205
   378.1144 378.6085 378.9504 379.0612 379.2009 379.6656 380.1436 380.1936
   380.8819 381.2602 381.5624 381.6617 381.8322 382.3711 382.4092 382.7311
   384.0008 384.6886 384.7301 384.8403 385.2419 386.5362 386.7011 387.2251
   388.3262 390.8859 390.9505 390.9781 391.6426 391.7778 392.0174 392.5715
   392.7255 392.9014 394.7467 394.8398 395.1967 395.4293 395.4417 396.0403
   396.3334 397.0708 397.2632 397.5763 397.8513 398.0116 398.3007 398.9517
   399.3640 399.4456 400.3659 400.4159 400.4505 400.7964 400.8210 401.9316
   402.6930 402.8823 403.0593 403.1344 403.6556 403.6846 404.0132 405.2379
   405.4792 405.7597 405.8660 406.1069 406.8685 407.3442 408.0617 408.3110
   408.9073 409.8980 410.2013 410.3734 410.5943 411.1927 411.3146 412.0106
   412.0833 412.3741 412.7131 412.7211 413.5883 414.1060 414.1529 414.5177
   415.2596 415.5430 415.7675 415.8790 416.3893 416.9600 417.0901 417.6083
   418.0790 418.1106 418.4752 418.5026 418.7184 419.1076 419.1936 419.2811
   419.5235 419.9803 421.4154 422.5827 422.6376 422.9241 422.9426 424.0699
   424.3143 425.2722 425.4984 425.5767 426.3023 426.7542 426.9392 427.5663
   427.8528 428.4196 428.7246 429.7278 429.7965 430.4477 431.2585 431.3306
   431.5312 431.6198 431.6373 431.9629 432.2112 432.7926 433.0107 433.0302
   433.4957 433.7510 434.7654 435.1815 435.2050 436.0374 436.2935 437.2380
   437.4594 438.0203 438.1242 438.5651 440.3521 440.6685 440.6883 441.1475
   441.6053 442.3159 442.3729 442.7582 443.4414 443.4430 443.7724 443.8461
   445.2537 445.8989 446.9062 447.0284 449.4803 449.8245 450.0164 450.1848
   450.5018 450.5516 451.1116 451.9208 453.3122 453.3241 453.7458 453.7714
   453.8033 454.1938 454.4125 454.9625 455.4255 456.0195 456.2825 456.3018
   456.5206 456.6212 457.5944 457.6200

          k = 0.4583 0.8901 0.0940 (  2422 PWs)   bands (ev):

   -10.0286  -9.9566  -4.3045  -4.2539   0.2630   0.3083   2.8797   3.7052
     8.7833   9.7535  13.9739  14.3459  16.7219  17.9874  19.7614  22.1632
    24.4719  24.5079  25.6222  25.6967  26.4602  27.8156  29.1240  30.3445
    32.4319  32.7524  34.3987  34.7127  37.1347  37.9078  39.8634  40.0314
    42.7887  42.8167  44.4441  47.1471  49.9567  51.7657  52.3122  53.2887
    53.7707  54.9395  55.3668  56.0020  58.0640  58.6000  60.3188  61.0237
    61.2253  61.5431  62.2565  62.4642  63.1416  63.8336  64.7128  66.3573
    66.5576  67.6780  68.1420  68.4793  69.6563  71.6728  72.7376  72.8085
    73.8350  74.1328  75.8287  76.2500  77.3321  78.5154  78.7385  79.1202
    79.9529  81.0266  81.5485  82.3110  83.5717  84.5255  86.0614  86.1407
    86.9844  87.6909  87.8149  88.0470  89.4365  90.3898  91.7021  92.9531
    93.4584  93.7978  94.4791  96.4071  96.6469  98.0179  98.7139 100.7034
   101.5032 103.2307 103.4439 104.2872 104.5526 106.9149 107.0123 107.2581
   107.3966 107.9653 108.7432 109.4145 109.5988 109.9106 110.0371 111.3643
   111.6468 113.0405 113.8238 114.0559 115.3141 115.7515 116.4765 116.5726
   117.2965 118.1574 120.3609 120.8309 121.9018 123.4023 123.6754 124.5107
   124.9706 125.7697 126.3077 126.4221 127.4885 127.6727 127.9574 128.6646
   129.3325 130.8951 131.2866 132.8115 133.3522 133.8357 135.1024 135.4260
   137.0317 138.2785 139.0303 139.5273 139.5696 141.1723 141.8828 141.9165
   143.4323 144.8774 144.9536 145.9828 146.2301 146.4243 147.0416 147.1962
   148.0482 148.5871 149.1608 149.9318 151.2103 151.7164 151.9901 152.1056
   152.2225 152.8519 153.1933 155.0992 155.3399 156.3877 156.4088 157.7030
   157.8839 158.4389 158.6554 159.7117 159.9457 159.9475 160.9107 161.3122
   162.2523 162.4926 163.7529 163.8743 165.1347 166.1986 166.2457 166.9484
   167.8734 167.9599 168.2795 168.3033 168.7607 169.0679 170.2742 171.1019
   171.8286 172.2263 173.0263 173.3897 173.5692 173.7232 174.4494 175.2590
   175.5524 175.6469 175.8608 176.0738 176.2047 176.5826 177.2998 177.9026
   178.4802 179.1049 179.2365 180.5398 181.3191 182.2262 182.3442 182.9750
   183.6555 184.2144 184.5258 184.8391 184.9955 186.1171 186.9352 187.3494
   188.1784 189.0436 189.3290 189.5013 190.6236 190.6946 192.3538 192.6074
   193.8207 193.9367 194.4461 194.6768 195.2073 196.0665 196.1578 196.3005
   196.6274 197.3925 197.6591 198.3191 199.4472 199.8770 200.0944 200.3785
   200.5787 201.0538 202.0847 202.1087 203.4757 203.6073 204.8842 205.5549
   205.6041 207.7820 208.2826 208.5049 208.6151 208.9868 210.7288 210.9265
   211.4743 212.3796 213.0074 214.5785 214.9702 215.6451 216.6543 217.1635
   217.2779 217.5120 217.6793 217.9226 218.5078 218.8808 218.9767 220.1050
   220.3736 220.6866 220.8195 221.3753 222.6434 222.8635 223.3507 223.9806
   224.2298 225.1837 225.3559 225.8397 226.1895 226.7952 227.2147 227.2860
   227.8714 228.0004 228.2561 228.8461 229.5049 230.2460 230.7603 231.1431
   232.0447 232.4826 232.5420 232.6698 232.9091 233.5903 233.7190 235.2076
   235.2646 237.5666 238.8002 239.9482 239.9936 241.9690 242.6488 243.0841
   243.4526 243.7965 244.2187 244.8907 245.0358 245.5183 247.2260 247.3534
   247.3988 247.5703 247.6784 247.9227 248.9691 249.0204 249.5049 249.7622
   250.0616 251.5091 251.7772 251.9984 252.7068 252.7176 253.2209 253.8310
   254.7930 254.8868 255.2742 255.4223 256.1669 256.5471 256.7456 256.8421
   257.0971 258.1073 259.1324 259.7192 260.5135 261.2063 261.7158 261.8814
   262.4695 263.2116 263.9910 264.7263 265.2591 266.1263 266.7633 267.0613
   267.5845 268.2310 268.2795 268.5283 268.9800 269.6538 269.7328 271.1736
   271.1867 271.5899 272.5776 273.4378 273.7817 273.9384 274.6025 274.8974
   275.5600 275.5713 275.6543 275.7935 276.5580 277.2408 277.3895 277.4897
   278.1535 279.0116 279.0273 280.0468 281.1008 281.3671 281.6562 282.1156
   282.7742 283.0991 283.6107 284.5781 284.8899 285.0718 287.1687 287.4030
   288.9174 289.4038 289.7436 289.8791 290.0293 290.0477 290.7552 290.9193
   291.0019 291.2086 292.8733 293.2275 293.7765 294.6119 295.0807 295.3626
   295.4419 295.6591 296.2666 296.7015 296.9720 297.9199 298.7928 299.0564
   299.9964 300.0647 300.2730 300.5631 300.5840 300.7532 301.3703 303.0222
   303.3888 303.6495 303.8615 303.9257 304.1811 304.2935 304.5521 305.5923
   305.9200 305.9944 306.1036 306.5263 306.5307 306.8403 307.1304 307.3044
   307.6605 309.6538 309.7772 310.1041 310.2777 310.5515 311.7577 312.5308
   313.0644 313.3343 313.5223 313.8695 314.7089 315.7995 315.8291 315.8754
   316.0395 316.8700 317.2799 317.4268 317.9712 318.6178 318.9417 319.0382
   319.5323 319.7676 319.8897 319.9901 320.0994 320.2726 320.9713 321.4113
   321.5684 321.7225 321.9908 322.2779 322.8396 322.9454 323.6711 323.9725
   325.4887 325.7032 326.4416 327.3137 327.4024 327.6866 328.3030 328.3644
   328.4122 328.4444 328.6352 329.1316 329.1852 329.9295 330.5346 331.2722
   331.3476 331.6882 332.0710 332.2052 332.9759 334.1199 334.2096 335.0270
   335.7742 336.2420 336.6928 336.8769 337.1816 337.2819 338.3652 339.5370
   339.6421 339.7602 339.9328 340.2743 340.5551 340.5737 341.2027 341.2302
   341.5503 341.5538 341.9784 342.4851 343.0016 343.5501 343.6547 343.6926
   345.5486 346.4703 347.4010 347.7558 348.0918 349.3001 349.3109 349.5126
   349.5190 350.5877 350.7615 351.1376 351.3097 351.3478 352.2200 352.2951
   352.9161 353.3772 353.7313 353.7847 354.5854 354.9555 355.0022 355.0636
   355.1410 355.4748 356.0920 356.1513 357.7657 357.8113 358.1936 358.3128
   358.4460 358.6199 358.9993 359.8071 360.2079 361.2594 361.8666 362.2398
   362.2736 362.7325 362.9438 363.8001 363.9592 364.1949 364.6511 365.4158
   365.5265 366.0352 366.3203 366.7480 366.9459 367.4237 367.6019 368.6228
   368.7961 368.7969 369.5363 369.8241 370.2926 370.7209 371.0286 371.0767
   371.4395 372.1835 373.7964 374.0004 374.0370 374.1426 374.2909 374.3823
   374.4331 375.4413 376.5368 376.8788 377.2060 377.2826 377.5945 378.8766
   379.1498 379.2269 379.3830 380.2359 380.7491 380.9725 381.4680 381.4852
   382.3451 383.3106 383.3402 384.0073 385.4613 385.9199 386.0309 386.7992
   386.9356 387.2935 387.5005 387.7347 387.8983 388.3850 388.6721 389.5185
   389.6580 389.7441 389.7802 389.8936 390.0676 390.5973 390.8264 391.4162
   391.4551 391.7248 391.7932 392.3723 393.1534 393.3023 393.5246 393.7886
   394.0739 394.0952 395.4639 395.6369 395.7420 396.1499 396.3028 398.1740
   398.3383 398.7220 398.7745 400.2561 400.7143 400.9350 400.9600 401.6021
   401.8514 402.2537 402.3215 404.0106 404.5455 405.0561 405.1709 405.4109
   405.4682 405.4838 405.6816 405.8071 405.8885 406.2224 406.6330 406.9390
   407.4729 407.8906 408.3902 408.4315 409.1305 409.2800 409.5512 409.6363
   409.9595 411.4687 412.1191 412.1434 412.3822 412.5246 413.2353 413.3854
   413.6234 413.6397 414.9724 415.0728 415.2800 417.2466 417.3799 417.4435
   417.4706 417.6696 419.4071 419.8747 419.9702 420.5803 420.8839 421.6329
   421.7149 421.9917 422.1242 422.3864 422.7630 422.9893 423.0168 423.7373
   423.9885 425.2443 425.2782 425.8629 425.9680 426.6372 427.6083 428.1241
   428.6646 429.0418 429.3382 429.6351 430.0281 431.0046 431.9729 432.3924
   432.4752 433.1247 433.7156 433.9778 434.3266 434.4444 434.7301 435.1039
   436.1281 436.6619 436.7004 436.9477 437.9496 438.9993 439.1139 439.3090
   439.6452 439.9003 440.4241 440.6465 440.8251 441.0719 441.5003 441.9501
   442.0239 442.7199 443.0619 443.1240 443.3095 443.4880 443.5690 445.2160
   445.2502 445.5243 445.6916 446.5384 446.6418 447.4383 447.6533 447.8288
   448.0272 448.1353 448.1785 451.4586 451.9662 452.7381 452.9000 453.0217
   453.0832 453.3223 453.6575 453.6727 454.5173 454.6083 454.6554 455.7071
   455.7993 456.0631 456.1337 456.3676

          k = 0.4583 0.8901 0.1566 (  2420 PWs)   bands (ev):

   -10.0057  -9.9795  -4.2913  -4.2728   0.2773   0.2938   3.1421   3.4462
     9.0007   9.3544  14.2018  14.3200  17.1865  17.6535  20.4630  21.2981
    24.1397  24.2069  25.6291  25.6491  27.1053  28.0003  28.7414  29.5500
    32.7032  32.7918  35.6684  36.3363  36.8459  38.2530  38.2878  39.5877
    43.0016  43.3598  43.4494  45.2555  50.7803  51.6610  53.5599  54.0045
    54.5416  54.6151  54.8444  56.6421  56.9590  58.9944  59.4709  60.3858
    61.4027  61.9381  62.2358  62.8585  64.2724  64.5303  65.2521  65.8296
    66.0854  67.3007  67.8510  69.6979  69.7108  70.9030  71.4367  72.1808
    72.3815  73.0026  74.5448  76.1733  78.6027  78.6846  79.7489  80.5274
    81.0887  81.8297  81.9282  82.5792  84.0467  84.9376  86.0532  86.3039
    86.5421  87.1187  88.7835  89.4571  89.6952  89.7121  89.8602  91.2872
    91.6230  94.0857  94.9187  95.0062  95.7999  97.6536  99.6783 100.5457
   101.4008 103.8209 104.0353 104.5798 104.8778 105.3779 107.0886 107.8466
   108.3504 108.7193 109.0147 109.7768 110.1240 110.3171 111.3008 112.6072
   113.0210 113.0713 113.9621 114.2796 115.1812 115.7493 116.8513 116.9704
   118.2042 118.6462 118.6523 119.9283 120.0590 121.2858 121.7704 122.1217
   123.0482 123.0931 124.7655 126.6447 126.7295 127.1347 127.9452 129.9638
   131.0861 131.7968 132.8236 133.4857 133.9731 134.8314 136.0898 136.2486
   137.6946 139.0469 139.2163 140.0896 140.8638 141.4784 142.3432 142.3510
   142.8247 143.8696 145.4661 146.3541 146.4759 146.8366 147.4112 147.7032
   148.3515 148.6944 149.3850 149.9433 150.4224 150.8473 151.1794 152.3054
   153.0586 153.7326 154.5003 154.9518 155.5853 156.6482 157.2433 157.4715
   157.7550 158.0876 158.3522 159.8575 160.2100 160.4107 160.4587 160.9405
   161.5241 161.5434 162.1565 163.7575 163.9811 164.3730 164.7173 164.7337
   166.0692 166.5603 166.6919 167.4650 167.7863 168.4106 168.6321 169.7249
   170.4390 171.3136 171.4579 172.7898 173.5191 173.9253 174.8971 174.9468
   175.3474 175.7169 176.0871 176.4785 176.9211 178.5495 178.7296 179.1193
   180.0921 180.2327 181.4540 182.6747 182.7866 183.3935 183.9483 184.7716
   185.5891 185.7223 186.4661 186.9728 187.1140 188.0513 188.1657 188.9565
   189.0890 189.5084 190.0458 191.0481 191.0881 191.6753 191.8787 192.7814
   193.2791 193.3916 193.9872 194.5449 194.6893 195.6066 195.7739 196.4355
   196.6103 197.0078 197.4997 197.5107 197.6746 198.2380 198.5346 199.4030
   199.9395 201.5231 202.6813 202.8432 202.9674 203.1168 203.7203 204.2021
   204.4811 205.1999 205.2940 206.8063 207.5116 207.8974 208.1206 209.2913
   209.9165 210.2480 210.2815 211.4412 212.0743 212.1358 213.3527 215.3276
   217.5514 217.7567 217.9073 218.0620 218.2629 218.7359 218.8203 220.0151
   221.1221 221.1304 221.7550 222.5642 223.2972 224.3566 224.9944 225.6202
   225.8646 226.4324 226.6737 227.2437 227.5513 228.7117 228.8858 229.8930
   230.2323 230.6537 231.5276 231.6323 231.9016 232.5910 232.6961 233.3167
   233.3246 233.8930 234.9940 235.0031 236.0478 236.3542 236.7528 237.4032
   237.4574 238.0075 238.2643 238.3414 238.6819 238.7548 240.1299 240.6566
   241.3368 242.5477 243.7031 244.4931 244.7087 244.9893 245.3667 245.6530
   245.9045 246.0375 246.8783 247.7426 247.8210 248.4740 248.6416 248.7927
   249.1923 250.2247 250.7241 250.9693 251.1184 253.4039 253.4322 253.7745
   254.4811 254.5588 254.6488 254.8283 254.8812 255.1648 255.4517 255.5329
   256.4598 257.5242 258.1462 259.2965 260.0181 260.9390 261.0281 261.6843
   262.0575 262.7463 263.1623 263.2860 263.6860 263.7767 264.2601 265.0553
   265.3432 266.1691 266.2758 266.5604 266.6924 267.9921 268.7186 269.1881
   272.5555 272.8971 273.3918 275.4180 275.5825 276.1543 277.2028 277.2483
   278.1120 278.1439 278.4436 278.5055 279.3211 279.6793 279.8014 280.3181
   280.7865 281.5122 281.9550 282.4188 282.8869 283.0863 283.2880 283.9437
   284.0076 284.2891 285.3454 285.4139 285.4972 285.6791 287.2639 287.4577
   287.9679 288.5470 289.2892 289.8785 290.0479 290.0671 290.9145 291.4874
   291.5343 291.6636 292.2048 292.3135 292.4718 292.7052 294.4290 294.8635
   294.9082 295.3282 295.8638 296.0760 296.2620 296.8330 298.0130 299.8646
   300.3906 300.4471 300.7334 301.1743 301.5280 301.6277 301.8788 302.1855
   303.1908 303.4644 303.6263 304.3468 304.3717 304.6617 304.8172 305.1783
   305.6031 305.8696 306.0850 306.2440 306.3358 306.4454 306.5883 306.7986
   307.3150 307.9895 308.0515 308.3329 308.4996 308.6553 309.0535 309.4263
   309.6423 310.0058 310.7543 312.2373 312.7842 313.9843 314.0871 314.7120
   315.1294 315.4211 315.5111 316.4041 316.8507 317.0713 317.1124 317.7843
   318.0333 318.0651 318.6888 318.9128 319.4548 320.8481 320.8543 321.4633
   321.6997 321.8025 322.3234 323.3846 324.2066 324.3779 324.3835 324.5482
   325.3713 325.4269 327.4631 327.7010 327.9628 328.2016 329.2688 329.4769
   331.0781 331.3304 331.5198 331.7510 332.3832 333.4838 333.7257 333.8588
   334.1746 334.3861 334.4192 334.8263 334.9771 336.1474 336.7674 336.9323
   337.1289 337.2172 337.4131 337.6670 337.6745 338.1690 339.5930 340.0001
   340.1174 340.3279 340.6332 340.7831 341.1517 341.2280 341.3748 341.5951
   341.6702 342.3303 342.6986 342.7676 344.3682 344.5338 344.7871 345.6096
   345.8670 346.1439 346.2160 346.6111 346.8625 347.2073 347.4246 347.6174
   347.6985 348.8827 348.9457 349.9404 350.0358 351.0029 351.1234 351.5953
   351.7551 351.7972 351.8423 352.3300 352.4931 352.5898 353.3334 353.5500
   354.0047 354.0830 354.4476 354.6238 355.0212 355.0692 356.2848 356.8851
   357.7957 358.2773 358.3205 358.9221 359.3085 360.0526 361.0029 361.4477
   361.9477 362.3941 362.4548 362.8134 363.2291 363.4909 363.5965 364.2965
   364.4168 364.6035 364.9223 365.7288 366.4245 366.6895 366.7292 367.0259
   368.3005 368.5532 369.7933 370.0326 370.6210 370.8144 373.6622 373.6858
   374.0965 374.7964 375.2247 375.5162 376.1559 377.8835 377.8941 378.2618
   378.4995 378.6049 378.7939 378.9135 379.2710 379.3506 379.4054 380.2507
   380.4730 380.5292 380.6581 381.4919 381.5828 382.1790 382.4119 382.7538
   383.0218 383.5915 383.8000 384.0494 384.1813 384.6577 384.7734 384.8714
   385.3803 385.9395 385.9512 386.4710 387.0331 388.4134 388.4826 388.7133
   389.4917 391.1650 391.2270 391.7257 392.0081 392.1789 392.3228 392.4133
   392.8740 392.9536 393.1457 393.4055 393.6419 394.0177 394.7528 394.8908
   395.6271 395.8336 395.9302 396.4737 396.5583 396.5728 396.8696 397.0691
   397.3337 397.4222 397.9241 398.6497 399.5158 399.7574 399.7619 399.9044
   400.1107 400.2507 400.5039 400.9023 400.9701 402.5788 402.6490 402.8157
   402.8464 403.1493 403.1982 403.2616 403.5842 404.5741 405.1450 405.4162
   405.4723 405.5136 406.1274 406.2404 408.1318 408.2093 409.0521 409.2172
   409.5468 409.6232 410.0284 410.1995 411.8758 412.0096 412.6453 413.1774
   413.6226 413.9023 414.2504 414.4211 415.3692 415.6228 417.1685 418.1959
   418.7072 418.8344 418.9426 419.5053 419.7091 420.0008 421.2667 423.0917
   423.2443 423.5644 424.0089 424.4706 425.2498 425.4555 425.5438 426.4658
   427.3293 427.3430 428.2132 428.3423 428.4680 428.7136 429.2705 429.5304
   429.6606 430.8617 430.9059 431.1614 431.3324 432.5171 432.6819 433.0573
   433.1603 433.1745 433.3121 433.4974 433.8757 434.1966 435.2864 436.2977
   436.3230 436.6266 436.6928 436.7238 436.8112 438.3191 439.0303 439.1369
   439.2126 439.4946 439.5639 439.5920 439.8378 440.4197 440.9170 440.9530
   441.0694 441.2859 441.5900 441.9519 444.0330 445.2528 445.8167 445.8748
   446.1237 446.5650 446.5817 446.8047 446.8696 447.1360 447.2304 449.1609
   449.3261 450.1111 450.2417 450.7231 451.4175 451.6330 452.5576 452.6241
   452.6992 453.3836 453.6631 454.1362 454.3915 454.5374 455.1478 455.4079
   455.4552 455.4926 455.7464 456.2905

     Writing output data file BN.save/
 
     init_run     :      1.31s CPU      0.70s WALL (       1 calls)
     electrons    :   3305.63s CPU    964.95s WALL (       1 calls)

     Called by init_run:
     wfcinit      :      0.05s CPU      0.02s WALL (       1 calls)
     wfcinit:atom :      0.07s CPU      0.02s WALL (       1 calls)
     wfcinit:wfcr :     25.55s CPU      6.83s WALL (       1 calls)
     potinit      :      0.23s CPU      0.09s WALL (       1 calls)
     hinit0       :      0.99s CPU      0.55s WALL (       1 calls)

     Called by electrons:
     c_bands      :   3305.46s CPU    964.64s WALL (       1 calls)
     v_of_rho     :      0.04s CPU      0.01s WALL (       1 calls)
     v_h          :      0.01s CPU      0.00s WALL (       1 calls)
     v_xc         :      0.02s CPU      0.01s WALL (       1 calls)

     Called by c_bands:
     init_us_2    :      0.01s CPU      0.00s WALL (       1 calls)
     ccgdiagg     :   3066.02s CPU    832.30s WALL (       6 calls)
     wfcrot       :    142.91s CPU     36.57s WALL (       6 calls)

     Called by sum_band:

     Called by *cgdiagg:
     h_psi        :    534.44s CPU    145.31s WALL (   44304 calls)
     cdiaghg      :     57.59s CPU     14.82s WALL (       6 calls)

     Called by h_psi:
     h_psi:pot    :    516.67s CPU    138.91s WALL (   44304 calls)
     h_psi:calbec :     99.90s CPU     10.97s WALL (   44304 calls)
     vloc_psi     :    260.19s CPU    114.48s WALL (   44304 calls)
     add_vuspsi   :    143.19s CPU     10.51s WALL (   44304 calls)
     hs_1psi      :    537.89s CPU    139.23s WALL (   44298 calls)
     s_1psi       :     62.22s CPU     16.40s WALL (   44298 calls)

     General routines
     calbec       :    124.63s CPU     21.47s WALL (   88602 calls)
     fft          :      0.01s CPU      0.06s WALL (       4 calls)
     fftw         :    198.88s CPU     98.13s WALL (   98436 calls)
     davcio       :      0.47s CPU      0.26s WALL (       2 calls)
 
     Parallel routines
 
     PWSCF        :  55m15.36s CPU  16m19.26s WALL

 
   This run was terminated on:  20:47:52  26Apr2020            

=------------------------------------------------------------------------------=
   JOB DONE.
=------------------------------------------------------------------------------=
